# vtk DataFile Version 2.0
A Simple Matrix of values
ASCII
DATASET STRUCTURED_POINTS
DIMENSIONS 2 3 4
ORIGIN 0 0 0
SPACING 1 1 1

POINT_DATA 24
SCALARS values float
LOOKUP_TABLE default
0.0 
1.0
0.0 
1.0
0.3 
1.0
0.2 
1.0
0.2 
1.0
0.5 
1.0
0.4 
1.0
0.4 
1.0
0.7 
1.0
0.6 
1.0
0.6 
1.0
0.9 
1.0
