# vtk DataFile Version 3.0
vtk output
ASCII
DATASET POLYDATA
POINTS 55 float
9.78032 -1.80307 0.98754 -9.4657 -2.99572 1.00759 5.52579 -6.91009 4.59944 
-4.16239 -5.64701 7.08914 -2.90309 -9.09061 -2.79763 5.32889 -7.28927 -4.22598 
0 -2.00419 -9.77107 7.03844 4.39577 -5.5911 -6.90567 2.92931 -6.61493 
0 9.94653 1.28444 -5.94588 3.7135 7.14064 5.94576 3.71354 7.14072 
0.343252 -1.51218 0.115331 0.891687 -0.966737 7.11493 -1.90957 -3.5796 3.60224 
3.14451 1.10068 3.62803 5.73578 -1.59827 5.87008 0.6817 -6.27855 5.84429 
2.93452 -4.21113 2.35738 -6.42578 3.3214 0.262854 -2.80132 1.10066 3.62799 
-3.28121 0.708564 -3.2498 -3.45283 6.43792 -2.66525 -2.97294 6.83002 4.21254 
0.171626 4.21718 0.699884 6.4921 4.05466 0.774814 3.69084 1.4418 -2.73788 
2.97288 6.83004 4.21258 3.51922 7.17115 -2.15333 0.066385 3.66254 -6.10302 
-6e-05 3.71352 7.14068 -3.45283 0.462557 -8.193 3.51922 1.19579 -7.68108 
0.171626 -1.75819 -4.82787 1.2129 -8.18994 -3.5118 -1.27992 -5.30139 -1.34115 
2.83607 -4.40072 -2.05532 2.66445 -4.64673 -6.99852 -1.45155 -5.5474 -6.28435 
1.31135 -8.00035 0.900902 -3.53274 -7.36881 2.14575 5.42734 -7.09968 0.18673 
-4.90438 -3.08065 -4.70628 -7.70579 0.35889 4.07412 -8.18568 -0.033208 -2.80367 
-4.56122 -2.25395 0.561462 -6.18439 -6.04317 -0.89502 -6.81404 -4.32137 4.04837 
-5.05414 -0.966756 7.11489 8.40938 1.29635 -2.30178 7.86304 0.955233 4.06413 
5.06179 -1.65762 0.551436 7.65306 -4.35658 2.79349 7.55461 -4.54617 -1.61922 
6.18367 -1.44675 -4.90854 
POLYGONS 80 320
3 54 32 7 
3 37 54 5 
3 32 37 6 
3 32 37 54 
3 16 50 11 
3 52 16 2 
3 50 52 0 
3 50 52 16 
3 54 53 5 
3 49 54 7 
3 53 49 0 
3 53 49 54 
3 41 52 2 
3 53 41 5 
3 52 53 0 
3 52 53 41 
3 25 49 7 
3 50 25 11 
3 49 50 0 
3 49 50 25 
3 30 13 11 
3 48 30 10 
3 13 48 3 
3 48 30 13 
3 42 44 8 
3 46 42 4 
3 44 46 1 
3 44 46 42 
3 48 47 3 
3 43 48 10 
3 47 43 1 
3 47 43 48 
3 40 46 4 
3 47 40 3 
3 46 47 1 
3 46 47 40 
3 19 43 10 
3 44 19 8 
3 43 44 1 
3 43 44 19 
3 42 38 4 
3 31 42 8 
3 38 31 6 
3 38 31 42 
3 34 39 4 
3 41 34 5 
3 39 41 2 
3 41 34 39 
3 39 40 4 
3 17 39 2 
3 40 17 3 
3 40 17 39 
3 34 37 5 
3 38 34 4 
3 37 38 6 
3 34 37 38 
3 29 31 8 
3 32 29 7 
3 31 32 6 
3 31 32 29 
3 30 23 10 
3 27 30 11 
3 23 27 9 
3 23 27 30 
3 29 28 7 
3 22 29 8 
3 28 22 9 
3 28 22 29 
3 25 27 11 
3 28 25 7 
3 27 28 9 
3 27 28 25 
3 19 22 8 
3 23 19 10 
3 22 23 9 
3 22 23 19 
3 13 16 11 
3 17 13 3 
3 16 17 2 
3 16 17 13 

POINT_DATA 55
SCALARS scalars int
LOOKUP_TABLE default
4 4 4 4 4 4 4 4 4 
4 4 4 0 4 0 0 4 4 
0 4 0 0 4 4 0 4 0 
4 4 4 4 4 4 0 4 0 
0 4 4 4 4 4 4 4 4 
0 4 4 4 4 4 0 4 4 
4 
