# vtk DataFile Version 3.0
vtk output
ASCII
DATASET POLYDATA
POINTS 8 float
0 0 0
1 0 0
1 1 0
0 1 0
0 1 1
1 1 1
1 0 1
0 0 1
VERTICES 8 16
1 0
1 1
1 2
1 3
1 4
1 5
1 6
1 7

POINT_DATA 8
SCALARS Elevation float
LOOKUP_TABLE default
0.0 0.1 0.2 0.3 0.4 0.5 0.6 0.7
TEXTURE_COORDINATES tcoords 2 float
1 0.8
2 0.7
3 0.6
4 0.5
5 0.4
6 0.3
7 0.2
8 0.1

