# vtk DataFile Version 3.0
vtk output
ASCII
DATASET POLYDATA
POINTS 8 float
0 0 0
1 0 0
1 1 0
0 1 0
0 1 1
1 1 1
1 0 1
0 0 1
POLYGONS 6 30
4 0 1 2 3
4 4 5 6 7
4 0 7 6 1
4 1 6 5 2
4 2 5 4 3
4 3 4 7 0

POINT_DATA 8
SCALARS Elevation float
LOOKUP_TABLE default
0.0 0.1 0.2 0.3 0.4 0.5 0.6 0.7

CELL_DATA 6
NORMALS cell_normals float
0 0 1
0 0 -1
0 1 0
-1 0 0
0 -1 0
1 0 0
