# vtk DataFile Version 3.0
vtk output
ASCII
DATASET POLYDATA
POINTS 27 long
0 0 0 1 0 0 2 0 0 
0 1 0 1 1 0 2 1 0 
0 0 1 1 0 1 2 0 1 
0 1 1 1 1 1 2 1 1 
0 1 2 1 1 2 2 1 2 
0 1 3 1 1 3 2 1 3 
0 1 4 1 1 4 2 1 4 
0 1 5 1 1 5 2 1 5 
0 1 6 1 1 6 2 1 6 

VERTICES 1 2
1 24 

LINES 1 3
2 26 25 

POLYGONS 20 94
3 21 22 18 
3 22 19 18 
6 15 16 17 14 13 12 
3 6 10 12 
3 10 9 12 
3 9 6 12 
3 5 11 14 
3 11 10 14 
3 10 5 14 
4 0 6 9 3 
4 0 1 7 6 
4 3 9 10 4 
4 0 3 4 1 
4 6 7 10 9 
4 2 5 11 8 
4 1 2 8 7 
4 4 10 11 5 
4 1 4 5 2 
4 7 8 11 10 
4 22 23 20 19 

TRIANGLE_STRIPS 1 7
6 18 15 19 16 20 17 

POINT_DATA 27
SCALARS Scalars1 long
LOOKUP_TABLE default
0 1 2 3 4 5 6 7 8 
9 10 11 12 13 14 15 16 17 
18 19 20 21 22 23 24 25 26 

VECTORS Vectors0 long
1 0 0 1 1 0 0 2 0 
1 0 0 1 1 0 0 2 0 
1 0 0 1 1 0 0 2 0 
1 0 0 1 1 0 0 2 0 
0 0 1 0 0 1 0 0 1 
0 0 1 0 0 1 0 0 1 
0 0 1 0 0 1 0 0 1 
0 0 1 0 0 1 0 0 1 
0 0 1 0 0 1 0 0 1 

