# vtk DataFile Version 2.0
RG Distorted Ellipsoid: dims 16 10 33  center 7.5 4.5 16  noise yes
ASCII

DATASET RECTILINEAR_GRID
DIMENSIONS 16 10 33
X_COORDINATES 16 float
0
0.0666667
0.266667
0.6
1.06667
1.66667
2.4
3.26667
4.26667
5.4
6.66667
8.06667
9.6
11.2667
13.0667
15
Y_COORDINATES 10 float
9
7.11111
5.44444
4
2.77778
1.77778
1
0.444444
0.111111
0
Z_COORDINATES 33 float
0
0.03125
0.125
0.28125
0.5
0.78125
1.125
1.53125
2
2.53125
3.125
3.78125
4.5
5.28125
6.125
7.03125
8
9.03125
10.125
11.2812
12.5
13.7812
15.125
16.5312
18
19.5312
21.125
22.7812
24.5
26.2812
28.125
30.0312
32
POINT_DATA 5280
SCALARS scalars double
LOOKUP_TABLE default
0.690496755160271869
0.671599077238829612
0.629741804901731927
0.620163487622610088
0.597715152541307027
0.580585122092196815
0.579018057795543384
0.559032486149009022
0.561143215366538328
0.569095362635631319
0.583614354117343304
0.596171897689012131
0.61776356620537376
0.637691271607054189
0.662344221129210542
0.693974099673211331
0.635134207835670872
0.608645260638376095
0.579784379637343417
0.562621663374979208
0.540857471092926811
0.521539977286896828
0.508770941087732465
0.502405571110571714
0.506757511265600979
0.504321878740320417
0.519525263999543241
0.537502692803131898
0.562892640395242783
0.593637166655165638
0.614776146716257021
0.647229716411110267
0.604409302472373788
0.579254129108904614
0.547268079719064215
0.516349529192865364
0.494051807080673644
0.466294757716371633
0.461055480576692378
0.447044989051371411
0.467388140143900732
0.463330051041780266
0.482986099116518131
0.500135505353378695
0.513041404650628974
0.553274187049386468
0.579520757374285433
0.606372975110313184
0.580160870535800344
0.545530351147899495
0.514578964619353041
0.479016866125884344
0.460235408045014061
0.443015686660983288
0.434206003036267274
0.426374166731753601
0.421458528761782858
0.434454206313855174
0.437163082748629805
0.462007582880219148
0.485879640021148029
0.508988392262175293
0.538682721600780345
0.573242707236239823
0.5639710804764273
0.524339279746293685
0.498899607547359125
0.468145960616785706
0.432271006718671691
0.419874260241180131
0.411631917700858607
0.403932790070264669
0.402508363037793915
0.401103753790946538
0.420227711016326611
0.445981658116376745
0.468929632949549369
0.502962355502681424
0.5291273923866745
0.56442108123936674
0.561773509675646099
0.541804794883012364
0.506575083621577882
0.465328272628504458
0.442007029667890405
0.418960869127898872
0.410615987525077386
0.412111195831983412
0.402927979737012665
0.405561456427665279
0.424270374590545396
0.448906157628095492
0.468782843398768134
0.501541151889400183
0.526978649710893254
0.560841674501085463
0.583568158133456638
0.547926896558055709
0.512605392842009233
0.48056380216104061
0.464443476892670348
0.440275513321139567
0.4311582125089235
0.430909384016909813
0.417717378859439104
0.432827314224011384
0.439291073471286042
0.465781081415375386
0.480439271368804266
0.519724781422331472
0.547236493573436511
0.582504487021396122
0.608421448468467463
0.576581704792498373
0.540645460090158014
0.517261089251459083
0.492731921826767394
0.466727802149965398
0.465975829697786115
0.447937017859965148
0.459486223639994473
0.460618564225374005
0.473199416987611865
0.499758002911972476
0.512307456896722746
0.541168168982980258
0.568777043995379206
0.603475941418906925
0.634751212230202144
0.610903866595407408
0.588512712156874618
0.562897847457010436
0.544009631737458088
0.530146239493928029
0.506659429857263754
0.509654411442602928
0.514694828160132234
0.505525797197351578
0.522823909019074495
0.532974189385163166
0.556865113539774081
0.58368874136219695
0.614734947985788205
0.647173869243141575
0.690718617953240632
0.668788713469298357
0.633821089569700624
0.609804295728078816
0.590339359084275817
0.587364602072665609
0.564874686213512223
0.572638138004477826
0.569919765659507083
0.574214686366100069
0.58499832628531212
0.597492393294480895
0.611442460248342479
0.634900439087522916
0.663005537047179239
0.701759439028680099
0.675566197149819803
0.646410284695516646
0.619779776661688819
0.598435828456498675
0.584756287667664298
0.554458460728301183
0.545314723472704377
0.55586570272715119
0.554138541319680544
0.551378356437792316
0.565798239628447663
0.581347798440369323
0.596494891414262374
0.623012446492011041
0.65476285046089755
0.66647518228775926
0.636489973899299399
0.602079639186537841
0.575769058463373895
0.539158331574064231
0.518486301658950155
0.508345630534053683
0.490383066715585847
0.486991256392237726
0.485005305922266983
0.489420332493173738
0.497141464121700127
0.525766288994155229
0.54238829296932789
0.557405048606196218
0.593317947139418767
0.628517123099738839
0.587138832049331816
0.561388049045421944
0.519256762059321142
0.501180287413569014
0.472263754062529961
0.460991594355938783
0.437910472951293595
0.439292157027621089
0.435797417495150385
0.446171371541381478
0.455993482631085245
0.476482217960235044
0.488331147246332753
0.525546072514643359
0.559262099185802719
0.596534145312271336
0.55947366229690465
0.516592883551508342
0.502816617745811878
0.467396623893823082
0.444287923488599523
0.4208569371295518
0.401549525098447213
0.396522718811982477
0.39526919021701179
0.400284056501035101
0.415814880092198247
0.446694863948804588
0.457218382164086778
0.495009248513634148
0.519852675879389214
0.56248713962234409
0.545204748037962594
0.514729315591627046
0.478853549386934252
0.450614812280804689
0.417776305597793218
0.396536574856987845
0.380189467153284999
0.392734624170258562
0.372472306512787898
0.390647631368372883
0.400200572507134311
0.424621722620498299
0.441857468988568369
0.478199500467256566
0.517124850107007816
0.553086389425902047
0.550350927237181375
0.507038580728345734
0.473872775461153029
0.442640874292523467
0.424856078547011962
0.400466933743706621
0.38651728697750376
0.375756779931977314
0.385235673212006635
0.384949084005091646
0.40158698608135307
0.417389972132217069
0.449054429437787117
0.476622046853975301
0.502319857431226646
0.544350732687620797
0.559912199894560869
0.528520678961664547
0.497874295968468106
0.46847480992897933
0.440527242336255787
0.427648013789708015
0.410532984571103488
0.395589186097138723
0.39355929031466802
0.408188414411191358
0.409974120814854515
0.434999612483960851
0.463809263511743008
0.495276887673790356
0.525437697852045416
0.566280169407500367
0.582869728045425584
0.552934374729015632
0.519352892430414825
0.496310597472162829
0.477662618808623707
0.450643388789532529
0.444549572072387322
0.434402935836214865
0.434614250991244122
0.452678634724975215
0.447925550502179026
0.475323465518828814
0.49931594949242647
0.522658804448237091
0.555237135806896487
0.587855861620865006
0.627513228293830605
0.588244495143569135
0.565903640982905132
0.548340765656095463
0.513044712303481365
0.505858142741084871
0.499677805485117088
0.488146346724268931
0.48934887281679823
0.494530500950204954
0.511846359141231333
0.520144035576186492
0.542767016113859135
0.566362873313227433
0.594682998408950003
0.637367525931770151
0.67688180994278857
0.647193670925985454
0.624952811329657631
0.601670386561967474
0.578474244210632982
0.559831690708769925
0.542265101890673118
0.558065104582619931
0.54900884161264929
0.560091430168261017
0.563275961796416369
0.57626204404583814
0.596267535457231102
0.618815363972479826
0.656517916378866251
0.66785427164322797
0.664713000899599504
0.635300650464855843
0.603895023349318327
0.580780250500429696
0.560861984093984023
0.5523880981136019
0.540660616011558015
0.521744063125951008
0.531179011093480313
0.54271057710164583
0.557038423888748357
0.565588260491689088
0.57929829783319331
0.607410896304640624
0.631260638105236693
0.663053626662538975
0.61192404054755134
0.584585935431918391
0.550812756091645817
0.529735130081537275
0.515132286872943324
0.489144824343544948
0.475969045882001451
0.470539533670196131
0.462215692575225379
0.478492639784589335
0.483751204806191437
0.503047039833148357
0.530924075851800903
0.555231949359468069
0.585931665259799228
0.608882830372990735
0.583938127527195205
0.532573300636989599
0.500267033370307646
0.479991860008547211
0.44940765769636748
0.429569896733830892
0.428604324556870864
0.415353554815552306
0.418020924658081605
0.417851551271958721
0.442882331883977409
0.451760887219072538
0.472601704216310869
0.511839546950629942
0.543054772652370454
0.575765081415134605
0.552842752807205406
0.511679815634568325
0.475029313874778869
0.449683930078845384
0.417165915874302073
0.397436990410523716
0.382557113768278279
0.375291449877073913
0.372700030657103221
0.369777973295866147
0.398205480248170152
0.430207621959507125
0.442464672724109054
0.480005147767601115
0.510047029837449206
0.545787870757644789
0.530484500647614876
0.494124177995026781
0.457748879076597837
0.436937650189608173
0.402027778208214781
0.371829244512327683
0.362275885147533783
0.365005038636244894
0.350904830353774178
0.3587203774876217
0.373803789037474188
0.392007960855919824
0.428639291272371881
0.457378033281920116
0.484127134385407609
0.535797782660554334
0.527974429846833626
0.496277193131745509
0.4651118551508166
0.423807462201326923
0.391451301157433484
0.375603353399046436
0.360947454971752513
0.347870944397963622
0.351011947052992934
0.362865580124340448
0.377533952611692925
0.394619960367638578
0.428180001721590597
0.46064432966863883
0.496665891709626384
0.536905875922273124
0.550312540404861661
0.513138861044724615
0.48211824209743509
0.44529336611400161
0.410436484721958317
0.388759317070679955
0.383571823240934529
0.363889167162230187
0.388021380754759448
0.38221358120602239
0.399395970970826408
0.413043620494663366
0.451086804071765324
0.474804036927757356
0.507663301810105438
0.544112150542801043
0.581387773523288964
0.533338376320583341
0.502081913741401431
0.484340920067140968
0.461525272442461221
0.438440441167424644
0.426962173677964629
0.409683083624146016
0.408556508154175324
0.423577564455552502
0.436533149755071126
0.459820884777666306
0.470305256462404619
0.508171028884223719
0.550748559273464111
0.586305547723728337
0.614353544942082497
0.584657041388949694
0.542353588611176995
0.532823814163568499
0.501096947517474578
0.480563586550576183
0.476670034651532681
0.470600874002227332
0.467965509469756624
0.477509058241620599
0.489862349825722687
0.501331036415179621
0.527709048996332197
0.55309602406649927
0.578702966529330509
0.616639483205022043
0.657122363692568268
0.639677786695324602
0.605161808017287139
0.582608558605898441
0.560673690636952715
0.551355078094070583
0.533704744429526756
0.532537214981419815
0.527143061386449063
0.535017400832114576
0.550609896056717063
0.56909625609715786
0.580164691876162153
0.611807563785109365
0.634109454023205399
0.673026466018007752
0.652976850644278017
0.618313948962295967
0.587135282274601988
0.56724811628485905
0.546086687427950412
0.53943086301115073
0.525114162760089265
0.511726789698785378
0.507323847041314613
0.523150451975177178
0.522391735661297263
0.543947729450655504
0.556225147992622682
0.59093435835492425
0.621881358477676893
0.653749117032217386
0.596482850989097702
0.57121559556359025
0.534971591485226772
0.504412156069514062
0.495858504851520165
0.469002511108061848
0.45559475750812084
0.448116603314113959
0.453454871594143272
0.44660467953570876
0.47441943844570833
0.484408023436725232
0.513560086214777667
0.537173987878049042
0.567668747266471208
0.588373281439537155
0.564859648484852928
0.527867867729432505
0.490361502513902758
0.46284985469023282
0.430549953960132292
0.41709482589795055
0.408199809443855477
0.39529010414107163
0.399119583358600927
0.403433364283943385
0.418717807923097041
0.441037949107837335
0.46091868327299651
0.492217219219225066
0.525956761619813418
0.564118242997792341
0.530324970829754272
0.500853435731303587
0.4562828896681696
0.425944836477736788
0.398931193335357148
0.382809200135008965
0.36227211343500737
0.357716772251022552
0.35878746240605186
0.362979301087595296
0.374388236847655431
0.392607665045562215
0.426684563498000435
0.464041926685991868
0.489328071809184417
0.523201729405193716
0.514869384480879044
0.482588042763742897
0.440652051514621335
0.402178219531381609
0.380079635394638293
0.350790355259576692
0.332910849917245566
0.32575104503875113
0.32281294613128042
0.340341670382333428
0.361075446659723187
0.373194583667343371
0.404338844989145296
0.435564408844943574
0.475198421029123796
0.517614307118818506
0.514703063680097772
0.479584807900461652
0.445358777588840071
0.403891781543100348
0.381846908343857039
0.354408214146295419
0.338926169741464278
0.323460700800469847
0.335263812830499164
0.339330623019052202
0.352149360233941944
0.365650333179062148
0.411223305438364051
0.438674455231662319
0.485080928353342544
0.513566150380537323
0.529826008427410566
0.496843731141459855
0.460403067890825857
0.43108552251289306
0.394233012183013376
0.37866277679516519
0.355318072907663651
0.355845739536178818
0.346140062503708101
0.364946158997751513
0.372609977570311668
0.404974913580718465
0.427337944845656681
0.458372065846148147
0.498975593781840698
0.526057259190349957
0.559028044480946673
0.527851693413026291
0.498895132884996539
0.461417664748826617
0.429386318706226011
0.415184120331544282
0.408276408564949234
0.398838382949665393
0.401373916854694701
0.403378127467537151
0.414087375794190804
0.438316696666431083
0.465340985519090256
0.492767451152818781
0.520369298240907163
0.558877459306386104
0.605318605383629027
0.575192951520621554
0.532918674004758008
0.516407090151545289
0.483229415496051418
0.474327523315093091
0.462701996277652128
0.45708419364614522
0.450610938488674506
0.459527347992739976
0.46193683346523956
0.4915982700187565
0.511751309359308904
0.538944312585080354
0.57184629853600244
0.595036184271568458
0.641479963437246781
0.631284835192764793
0.594495816942570698
0.562670174390327738
0.551992143970919114
0.531991592991619466
0.524252041178058015
0.516113691554254128
0.514381647334283376
0.52405102570564599
0.532056957829265986
0.546049475056124223
0.573185292035591432
0.598924775835392942
0.615823924395645594
0.657315706387686216
0.640398523844755818
0.605495601041346698
0.579550585673984098
0.552893793216353235
0.53048856133503719
0.510647941630857805
0.498738632527752024
0.510878207258561701
0.497637373976091035
0.507761249867839881
0.511919361156004338
0.526484368982742201
0.557329809299116907
0.578632864879306319
0.60667043243172758
0.643602430857695307
0.585214918189578603
0.552023088553622587
0.52330584126631019
0.49825491489075352
0.470734689334908807
0.447991392576634007
0.44433463072129542
0.429797634316362809
0.433798011971392117
0.448830880873883287
0.449218866789280524
0.474918973545113865
0.495361829411017141
0.528291440784132482
0.558583662131503456
0.587036989265018017
0.544959100266358742
0.512334436216922651
0.464609209483693719
0.444828156655965257
0.420767051925256153
0.388642772860322783
0.386771619709088854
0.369174887126077322
0.374166475718606617
0.382991502674176754
0.39357630176046926
0.424389812697961222
0.448355969613728922
0.471748129314015996
0.513030751982303412
0.546649335404298164
0.516981502574461294
0.474182317398920361
0.441651686170525248
0.406256035963694251
0.364657627946509799
0.357039097173501574
0.33574893488616675
0.333844958781323975
0.328577758311353274
0.339942450663754614
0.344428680761148076
0.378968865281714862
0.404954747358957923
0.437193926313347525
0.482764375351801223
0.524789901774900813
0.503423489035080052
0.470192332231928078
0.427639205613096041
0.391411978114651449
0.356998312853697153
0.328468170988522601
0.31711998954844528
0.304981918599870505
0.318205929067399806
0.300537138138533166
0.332063809263669074
0.353248026751402266
0.384031587947415154
0.427834766068418304
0.465410132372308938
0.503600052298019518
0.510600918234298762
0.462032847368646804
0.419689681687314742
0.38296929012637021
0.356109335802915927
0.33192977987524136
0.310479059372664012
0.302535324361589253
0.308000545766618561
0.304369840775251921
0.335481472837887817
0.360547526263120977
0.388259798396633882
0.415788562455137012
0.452636389696527641
0.494395645559738195
0.503513790172117615
0.47970386280907662
0.432803114393181476
0.405927971998850501
0.376990696794166025
0.362423923833657846
0.335826144358822964
0.331505176066480223
0.332961608409009513
0.341440558573910868
0.349681671483804302
0.380867363816871141
0.412639378706614213
0.436055315473503735
0.479443147324457475
0.522176681560057032
0.545846246262452484
0.51153701190051637
0.469861589854787487
0.447614716714559047
0.421322166671349863
0.400950817293916573
0.378566968830182593
0.376941915934671079
0.378139559214700383
0.382155015857770508
0.400664619631563024
0.420887310256554958
0.444497021859822705
0.46651711124760975
0.514162038603397265
0.545627301712891866
0.595456922584109871
0.544906694510653877
0.527659173785841484
0.489156098972784725
0.469511849979440066
0.452222654783665301
0.432848119490826633
0.417671474648394048
0.432360328865923349
0.440659799330914537
0.448142511808811761
0.466015470127145115
0.49495930255554843
0.528968015491163679
0.559167463401034737
0.587606142097049311
0.639995386637724595
0.607060237271815462
0.588004870341952812
0.55690960132182199
0.537487767878005895
0.516802421611326501
0.498970260945720778
0.498858859114030495
0.500788924269059854
0.50725557359830864
0.502678333323973048
0.532179864588210982
0.560383703342085648
0.580217032359775065
0.611706748349696294
0.635762770213164075
0.627019548364114665
0.596892319607720379
0.566192915624160631
0.542774342615949257
0.514129233454824752
0.49610469264067647
0.486602013980174886
0.484267659588749566
0.482188935681278852
0.486610959445262781
0.505686659040822883
0.518259806727529804
0.532669343073712942
0.565558397954482928
0.595674572873101216
0.622655096002054154
0.573170474032266397
0.542065596354239343
0.50087973133737218
0.486334284756522295
0.449837431137049992
0.43119238562054113
0.417272342280474051
0.42066759747206478
0.413330084502094075
0.415254920558061957
0.443230406708187585
0.454656480972255084
0.476400183651785991
0.508648533980194495
0.543733591807120109
0.574924185732705872
0.5242951397871215
0.496040253207106374
0.458085779357376655
0.431009543171048615
0.395146543044686382
0.379303186760476474
0.359408686502930119
0.357095728665383028
0.353249426632912367
0.351614897593018005
0.377547262535622929
0.401904069442391487
0.429996340503812302
0.465507902312698951
0.499343990847487207
0.53841701555006094
0.512877706709280012
0.461741443672713137
0.42121923201482464
0.385706373153763327
0.369433621376340171
0.330207601011910046
0.308056510594701072
0.318735496421078179
0.30713040532610747
0.320736354497288934
0.33840773147455655
0.359379624336545245
0.382364068924027023
0.424544675282646888
0.460430923500594003
0.50561774653471947
0.486215854761929245
0.437016052517810505
0.413797257140464392
0.35472824734045616
0.327865635309291248
0.309924529444041419
0.279937246401220918
0.282710183055366604
0.28209630289789589
0.284340723116308813
0.306830714594187925
0.337250114831996295
0.367806841548219798
0.404276020720786666
0.444841274533191389
0.493824058649868669
0.490737033961147984
0.443700317654529275
0.403191483214683122
0.366129309352174914
0.339320408258510009
0.318229888330760213
0.290640066225439697
0.275107338817085378
0.284234669597114631
0.298017175753027608
0.307592128168406698
0.334393364343715083
0.369378801997438555
0.412073567107505423
0.43941128185741013
0.489463401911587437
0.501441244306936262
0.461794239082869373
0.414401910237480908
0.384909559188919559
0.363797940223996419
0.325123677672066347
0.32016497006735728
0.3059269637062344
0.313545505423763693
0.311765712407445217
0.330691972197212802
0.370809372871701515
0.387079950271683237
0.422937314442803136
0.464140945473250244
0.502535776319875671
0.531901035783215237
0.509461578890700095
0.465056909728470413
0.433014853229642394
0.397420407790780139
0.375829981194070184
0.362922785624023858
0.359081507473976769
0.353941260129006063
0.359997160776611758
0.376354330406716675
0.402620317000985217
0.427856142749906077
0.459495634246292695
0.492194027468580986
0.531613731858654681
0.569818728426797594
0.543855452311270526
0.511639313856903422
0.48614171883855356
0.460020841781581258
0.439329897827572369
0.412192081050005321
0.417447687804096024
0.428298651396625318
0.420990089015093216
0.448560301727718824
0.454659227554286338
0.467403906796317214
0.508231358687225687
0.535723643076651435
0.569399588564737047
0.622710161157083442
0.592050705838189084
0.570740950292129456
0.545383900721417958
0.527222189997793467
0.505852922621145229
0.492927392398143649
0.490842061444218325
0.48643423597424762
0.489699033175731546
0.507539381208791718
0.512549052332998634
0.551816987116681701
0.570736315434951735
0.591804638791069926
0.633409185357522886
0.61788177792849508
0.587551647499448659
0.557115722445173267
0.536949043392215941
0.507073350385654376
0.500870251818323453
0.478776671521467967
0.471969197908309879
0.471052583375839162
0.479771945111555853
0.488762765093469886
0.514338689283359463
0.517303028224979644
0.556764407900495639
0.588941322639829568
0.620948966191434581
0.560400991723784325
0.521402538042983643
0.492761023823501898
0.458726247873798954
0.44325013644893918
0.428694857676597485
0.404501309871541037
0.395821915311544537
0.39714651171657378
0.405970216274128881
0.416543425639243958
0.438703951909144296
0.47675113114406259
0.49331302959132417
0.533177955370864542
0.562086344049223752
0.522928906922163983
0.489056766930390574
0.445873333139901018
0.406486083228999984
0.388788304265343443
0.359180481665531848
0.346216781290859366
0.334158189612738854
0.331473996955268191
0.354409320505947256
0.350735104315678337
0.398680596288048528
0.415931864936763651
0.438578659220223321
0.484967926445771413
0.524482423310103418
0.493082719011926907
0.448612088663604358
0.415078720537900347
0.374398329929869822
0.32836492071300466
0.31741506828432059
0.294282956994584011
0.282465777141302221
0.289522795421331469
0.295449129022171852
0.306425745621967061
0.338945689298209729
0.374015010075133492
0.4011873669307226
0.452408990366485242
0.485754399462366371
0.468320153841756737
0.438145891680003119
0.374224858618917966
0.352232567850679024
0.312782776362045822
0.295239553906558316
0.261408422167808518
0.25895315252526524
0.254501381742794519
0.266798227007896405
0.280456285931704796
0.315302021509750896
0.350770146433442676
0.384986825324240223
0.428578535570384
0.468359998354696216
0.470185083040975504
0.434673906816721856
0.390962834693136752
0.348477379862397796
0.311581299311264548
0.288388662793277073
0.269454991992027271
0.261194058286983999
0.248983498442013285
0.265318429644615161
0.283561449505923546
0.317289021021469608
0.349685856882661461
0.39262812171095901
0.425492292894602719
0.468843091616414964
0.483677506609583197
0.453196134073760637
0.400292648760556591
0.368132765965026088
0.339760489560660905
0.311862394944476817
0.29842266646724025
0.279188494426458433
0.277969145518987715
0.296009736932328127
0.305741236344623302
0.339906687833365972
0.370762141422789737
0.414111256090878899
0.448150262339141514
0.492203679247522619
0.527253552918257706
0.476696842613984317
0.43956321351099481
0.412710143287593756
0.387780919011437186
0.354926026099125602
0.346449630411953147
0.340362718421332644
0.343884580451361943
0.337010333689541031
0.356260922186772078
0.388615593846642293
0.410510417182857412
0.446785141153817067
0.479536713066865183
0.516897889618697204
0.568455496118315584
0.537098644000014946
0.489926856343033179
0.467439931955830168
0.434839797093470426
0.415738619883628702
0.405827298641072254
0.406508255643575733
0.398521328611105063
0.400611634731160182
0.423279570658775195
0.442612948491175551
0.469161104288593866
0.496802104298355418
0.521574256640395806
0.560467996881255037
0.619666140721463865
0.591303783729917432
0.552757507113142088
0.528152351497684691
0.511260056928623086
0.489212231798792141
0.471195799939436721
0.47713734976377864
0.481391633668807939
0.481453768842024621
0.49170923726143867
0.512221684888828133
0.537544422267948407
0.555536075380964389
0.591165138557798286
0.620296805546903252
0.608026884172329529
0.572521380825962378
0.54737329191001638
0.520478724951880634
0.504387903610963972
0.475016875321741805
0.465338717063119189
0.454060973726441164
0.454306468568970445
0.472320318778207071
0.481219935471888294
0.494788008133669077
0.526291694159644274
0.55230518049033861
0.581518477841343251
0.618525713060269045
0.556958569714267604
0.515094902222279161
0.489020352482689546
0.455511313288141706
0.421062636205846885
0.410596498122744236
0.391124828172999706
0.375366766553062225
0.380353472333091469
0.396080062700587598
0.404255612960390698
0.432151217291051992
0.461495180933405358
0.477355561375511828
0.506977741425160056
0.553575562664706977
0.515923351988531897
0.471458988905958609
0.4330600554360447
0.396359175567309374
0.366805316342247945
0.343395849047159418
0.332321266780998992
0.31548888185867785
0.313966798576207129
0.32650013412108686
0.348261018572305903
0.374832373989953005
0.391263941650073055
0.431048584641366972
0.469977570296339464
0.509908509001471333
0.482668795640345316
0.439881360136286703
0.388333128757482382
0.367449304364181606
0.32657767492605877
0.283786294247384774
0.279541845537208233
0.255137696391519786
0.270856824046549094
0.274194345689796115
0.293607518460031247
0.327793209136263808
0.355024968884445291
0.39222497827530467
0.433785683714167591
0.475272116715784787
0.459814077901210705
0.423675957816335325
0.369033051278528257
0.334049109986805037
0.29187510510008291
0.264518213961867643
0.241596616862746305
0.233735430515409737
0.235445769107939046
0.24797274982783421
0.263045492862014174
0.297529115872787964
0.333045672944568716
0.370078221108850525
0.411716023581716217
0.462285563039150194
0.464022757100429506
0.420047722953054092
0.363114777352747053
0.33513767199852379
0.298017378049301673
0.26751107284858644
0.251986936686965035
0.240820086277128503
0.232271635807157789
0.241336702464552966
0.278494406436232911
0.294359865384506703
0.329305133393787475
0.372563267495569284
0.420973530905934978
0.462612406300868917
0.480294833238001595
0.433996655546442955
0.390578306980138623
0.355714990399337849
0.325004493773714986
0.292764870907540997
0.265712805009864494
0.271391663676676054
0.261334424144205379
0.274286203599952372
0.289954259182687468
0.323285457671420084
0.358803350232101526
0.389680117435460882
0.431558205686823848
0.486252646500941021
0.501966747984625594
0.46831781458955235
0.438468685807138436
0.396801985625903131
0.362516681088341675
0.343360143480753166
0.314272865902092746
0.320912160667271573
0.313096132072300859
0.328319897304680641
0.340505586443399677
0.368986121548546764
0.40256124389616682
0.428473816574960698
0.461265106917433221
0.516542725310065065
0.556419324108798796
0.519697258179310451
0.482592435002220821
0.453131247370172963
0.424058546850378137
0.406546510329775457
0.393857066942530976
0.379959356885093469
0.388134539227622755
0.394627731157618844
0.407398007979921928
0.424966463873083233
0.460311404077936637
0.484750886082543075
0.511780292694691274
0.555863465496738263
0.605904996965298315
0.569867267056431204
0.53910882657798509
0.51027578305734933
0.504668360153932793
0.471952605302210559
0.458851595481087948
0.467822875581909881
0.450739268861939157
0.462595892508675832
0.475260157639857017
0.496264753739137809
0.517626838202613015
0.539670597970807409
0.574836043759311965
0.606467302415737763
0.597495768070221089
0.566848876567622617
0.537019952957486169
0.513424890348602059
0.481141293590742258
0.458618973890940418
0.451367037113637348
0.440624268014939535
0.447031872232468874
0.454334966953725272
0.468132580916086893
0.489676163738447301
0.514696843931365833
0.532235044662808465
0.573453395458003445
0.595426237583160489
0.547895171586384788
0.503204368365122834
0.474730263814138131
0.441773554073603303
0.413370325956068208
0.387002660843306534
0.387255647829092775
0.364418826381084693
0.368067641536113987
0.380697210481680648
0.391472322555953045
0.425093672666273292
0.43571640609386697
0.475848675831960444
0.515194629443003649
0.544443805161824224
0.498342336007419173
0.458324521647559324
0.419739306770178289
0.385739037322141487
0.344323934486112537
0.327088674723405359
0.317869712694562934
0.306238855965681567
0.300878882058210895
0.308034908159650844
0.330264391123551826
0.355485757758817633
0.381102787779905194
0.408011039100500572
0.459450524912940195
0.494759133645358617
0.471710347334543922
0.415641296194670329
0.381094780398710808
0.334992395175297497
0.304221463841787332
0.279476467258940653
0.248980537255605094
0.24188693582535134
0.246268172855380635
0.257119365533192978
0.270108238346587093
0.301071763676992399
0.335527044070561165
0.367769833041533101
0.419653041647551184
0.474245309034983353
0.445778366337244492
0.403707013320933006
0.353345358496696571
0.310322842333051907
0.280297885335874908
0.247899437215593155
0.220590774864866002
0.217093125498299705
0.199965573465829022
0.217953235954953889
0.239737262990739636
0.274086661733579984
0.319778389665815621
0.354673731452018859
0.399354500961313863
0.445681492100183929
0.452330795536463215
0.404922528457651754
0.354770834570915294
0.316255154344770695
0.268783908285093687
0.245736046102311895
0.223324844689084756
0.204021531260018457
0.204135190165047775
0.216160938591672624
0.252529926564958374
0.275761161245298758
0.323381600115034362
0.367002527838737602
0.400955758285532649
0.450852085361902688
0.471367634932200186
0.424287841604826577
0.375371208621367081
0.34278933121045374
0.309679532689443593
0.267986293919096896
0.257182746728261358
0.2376721531105076
0.243777022953036882
0.261742473443349222
0.273486229069243358
0.301095262212148662
0.341336675418217439
0.379756222201689364
0.424456813620207429
0.474757088820139617
0.501104482003512985
0.45440209733115311
0.411866687141272059
0.375400597380735279
0.346754049232206318
0.326271719156999096
0.306540061815656684
0.300880884774275326
0.301726965554304616
0.309073421343244614
0.3342277089946456
0.348858255317411381