# vtk DataFile Version 2.0
RG Distorted Ellipsoid: dims 16 10 33  center 0 0 0  noise yes
ASCII

DATASET RECTILINEAR_GRID
DIMENSIONS 16 10 33
X_COORDINATES 16 float
0
0.0666667
0.266667
0.6
1.06667
1.66667
2.4
3.26667
4.26667
5.4
6.66667
8.06667
9.6
11.2667
13.0667
15
Y_COORDINATES 10 float
9
7.11111
5.44444
4
2.77778
1.77778
1
0.444444
0.111111
0
Z_COORDINATES 33 float
0
0.03125
0.125
0.28125
0.5
0.78125
1.125
1.53125
2
2.53125
3.125
3.78125
4.5
5.28125
6.125
7.03125
8
9.03125
10.125
11.2812
12.5
13.7812
15.125
16.5312
18
19.5312
21.125
22.7812
24.5
26.2812
28.125
30.0312
32
POINT_DATA 5280
SCALARS scalars double
LOOKUP_TABLE default
0.00288089990615844746
0.0589728506406148323
0.107580365339914968
0.161042311191558873
0.221306930383046496
0.268681840101877845
0.320584032535553065
0.370289874871571889
0.425685109297434527
0.473014853000640834
0.540633598168690943
0.587755211989084869
0.63320293664932259
0.694159389336903909
0.759916562239329019
0.800625822544097976
0.0816034679942660851
0.101297649463472264
0.139469307874696441
0.180789297931935378
0.230851981110042986
0.281724379892452526
0.338715649111227868
0.38843567543191998
0.437296888783542559
0.490164880046105589
0.534064181102751445
0.591906757706266329
0.6462307516011635
0.692944217993400446
0.755071460054449251
0.806500789195809253
0.175560411082373719
0.184222871628017704
0.21538425986062984
0.23012934882964009
0.274440284202609408
0.323728712916558803
0.361415896641306078
0.412360791603471832
0.461376773251427508
0.516841312790095042
0.564365162124840447
0.61549560688600391
0.666438826050672284
0.716793088726248917
0.763288241485025276
0.823528946938014483
0.269751729170481347
0.275530645109052896
0.280445791609744755
0.316620223285131119
0.340478500227121339
0.37694549172819275
0.408379766389897536
0.463329314732334907
0.505219828104776281
0.546035110096770526
0.59500992455795787
0.642338037449284971
0.69289277633031221
0.734956694946879874
0.793957542402305538
0.846208520040822032
0.349177422258588999
0.36206613303027535
0.372357751064720688
0.391699915006634869
0.42109440692447625
0.449837303426530666
0.48440263906171549
0.512256970140669177
0.550623691936560467
0.590220828797700436
0.638989062548052988
0.685818909158617207
0.724280727360828713
0.776358518245952256
0.82618730195312895
0.873793472417293327
0.438837490346696668
0.453100099640267984
0.458856328188606666
0.476821169226558761
0.482146587310902042
0.523255052966165035
0.545663823461068564
0.575786889184681572
0.614713359946006732
0.661967614823313788
0.694257998342598603
0.739219631129347965
0.77915501559092315
0.819774514161197732
0.868937695783084996
0.910395912495980619
0.533731933434804295
0.538379099587374843
0.544065094901791113
0.550405655403767291
0.571510439172706053
0.594772745755467569
0.614659778597697493
0.646496400614348543
0.690239186485584244
0.724240809664884688
0.759006604546320851
0.79094566724971771
0.831118623108011545
0.878983664222908301
0.921141926335855121
0.965082847238140862
0.618860751522911978
0.627792501873212228
0.632581532799524671
0.64667351137021778
0.658044160472022299
0.667969670052367737
0.699799142897241655
0.727725576006573949
0.755553101820337192
0.785459569090573351
0.816754597725367959
0.854633847050632167
0.888930449772214137
0.927864522844746076
0.976791503732799549
1.01194986713091861
0.719223944611019572
0.711284444894598744
0.729196617619236043
0.720202196174197784
0.74109607683265788
0.766987544112741837
0.780063302665705005
0.808350563050763138
0.834478812380293977
0.869439446059806276
0.881342962317996581
0.92417381741362048
0.956543274701647461
0.990440676321386215
1.02998356527752377
1.06516703119716305
0.799821512699127268
0.793823710384305548
0.808791517363699919
0.815744991471873293
0.825272537393216488
0.846287446127247822
0.859785780095042473
0.88260469578020595
0.906180409590403357
0.935305229906357671
0.961883327127056931
0.993685136940594904
1.02810045868154698
1.05589041301893038
1.09493846968706809
1.12900076179804287
0.0217645668983459488
0.0588060338313766348
0.105585023945734435
0.161916153715762817
0.220986383722134444
0.260326615302201969
0.329759182691821195
0.380019424776101122
0.431472445598710841
0.477851855116438684
0.540005224898923331
0.584642010958134062
0.643082511268968315
0.690007302951012758
0.747206920035163091
0.792331659840391445
0.0962796079786461534
0.108377944823007152
0.139159890951736892
0.191264991864675493
0.237763566482385336
0.278153142146257082
0.325199078669148989
0.38298628690298453
0.430412618590015783
0.489834769777911128
0.535771598459380161
0.583631303840213334
0.63844943903195539
0.693632226037420585
0.75470263570306817
0.813047989063750975
0.185880785097411516
0.184851008947948647
0.211687767511981595
0.240052366271833795
0.278470441933280688
0.319865256973955292
0.36515614603309493
0.416696777477697955
0.471795403251738854
0.51632536401943574
0.563394267445146313
0.617047043838461762
0.660988106776840501
0.717314391813264063
0.765254727256285849
0.809912988951398627
0.276835957495805474
0.280473121855190133
0.278677182750471597
0.301087224637609452
0.346643212608170659
0.377779937977507141
0.424360631355840623
0.457434630984688451
0.49792732973309628
0.550321579651851911
0.601351033626664089
0.648708400578688837
0.68476608056942101
0.740305843373720629
0.793254786940123746
0.847425575680933352
0.358313911883094638
0.361573793634207885
0.377687773903831625
0.390808081526697326
0.414441983631383015
0.445390336989019309
0.472630552685337879
0.521131189094734437
0.555616611275301486
0.599305150494684136
0.642637417494968832
0.68700366674375013
0.738473917110502254
0.776531813503889445
0.82281203521761781
0.869840664927362339
0.455142477034185311
0.44228094899988829
0.45637241314578797
0.470633513186739183
0.492718418206773145
0.523551841275501584
0.546152959835148222
0.584437208575870559
0.616994668773564015
0.655850300664546526
0.695212742909276038
0.74021721628635051
0.780666201473860122
0.819769968389125081
0.867887956720890918
0.926271374118601165
0.542263716415036678
0.542288838805897289
0.543815986478150326
0.553961594309039573
0.574336315595333158
0.594834557949173837
0.617424586325824087
0.644932175097444826
0.679814615645697673
0.712925102849022996
0.762269321934086252
0.796756583662535767
0.829947626236927083
0.873800682565426978
0.922416880652825566
0.960785619585155293
0.62965269813084801
0.621463475236298413
0.634596735797875455
0.649998480778274268
0.653144927980986667
0.672812850811737473
0.689851952601129637
0.720955791410802571
0.752428985511717774
0.783949778395295338
0.817328092863752076
0.855259807916237236
0.890078205810540535
0.937503497081486392
0.970391169995387326
1.01247971856799124
0.722296929025224577
0.70973705904831319
0.718495213281813538
0.728313300030024147
0.74348648182541377
0.756624369357158155
0.782414019741403233
0.801382992340640254
0.838661096742344681
0.867740010281280671
0.889230466064809821
0.919617107628069141
0.960011341386041939
0.989902613861040725
1.03090854011313526
1.06552425577266963
0.805189459370420746
0.792071651889642792
0.815386508669459165
0.818654186038982545
0.839963241418202777
0.845727158017359093
0.869442213243585504
0.880445785249271307
0.907674305212189281
0.943420279339158396
0.967088052599071379
0.988948209014832269
1.02389066965773501
1.06017665178989828
1.1031896991424579
1.13418599929238173
0.03908573389053345
0.0757117773731941918
0.117383450471438569
0.169975347568335988
0.226964685094685426
0.267717277771247986
0.314304373833960982
0.374847573439280213
0.432153390975610396
0.482422296215561985
0.538981742319339263
0.596028278878329321
0.647373549461858988
0.685192113728779528
0.75377019329838757
0.808254914872542862
0.100593356149117852
0.124380208809141218
0.156550836554044448
0.188485776391941778
0.235762994221964839
0.285212630223629304
0.331983449250267737
0.382590998165273477
0.438391703805520727
0.489216632156314946
0.542068141885658883
0.604843409666967591
0.650070378412817007
0.693649862347832324
0.758600891790257137
0.803807852597101524
0.193037691051133858
0.197181197537316222
0.219369069329699601
0.245977240197927355
0.283157387856690368
0.331368928987357036
0.359027440756786331
0.415972157391520769
0.466996818996112228
0.510462871815778874
0.566968780382449467
0.618052581407649182
0.66491349766651453
0.717144530317016304
0.761471495677154331
0.820495937642599094
0.264666073089851461
0.266117967883685913
0.297493812101429222
0.320979065834197053
0.3430586228919143
0.388696543180186649
0.410270045087608615
0.46133269173074315
0.510309178713446054
0.559179664695742762
0.597174587742930418
0.644483568534030882
0.700976281972187865
0.739932185559403433
0.786776451364432194
0.842820152395241773
0.357630670288664576
0.361242765556996526
0.368125744454582571
0.389945305815401766
0.41272485972717976
0.445779388107099661
0.485596330196102877
0.519650229830488142
0.550168382397903
0.597870075813648372
0.640695744412845936
0.682534890269266503
0.726956538644406347
0.77594328613161534
0.823628804951581195
0.875038255724271852
0.451283481277265808
0.446287962287393425
0.46368630562940033
0.469200034283924927
0.49298984290738912
0.523487094653462326
0.551216673819990177
0.577598319059149823
0.613725015984034061
0.6591234699628854
0.700503209669812388
0.740499766137264537
0.781415564726586021
0.828960606752204066
0.870993951805290934
0.921266380723741785
0.540400390085452598
0.540797719143939926
0.548149267144065533
0.55707354377747853
0.586684158954159707
0.594378815190440113
0.634628937552654149
0.657763017496657332
0.693740486247682808
0.710916098341095037
0.75479659079494954
0.791791919961844282
0.837963165539897803
0.872768686201880417
0.922809590090562182
0.965575163284530746
0.619883781458515637
0.629569946463174657
0.641036753526316727
0.652731197547796294
0.652630970132500821
0.672014583055262626
0.699233530096189493
0.733483043346075392
0.753569191915418601
0.791671399274923693
0.822100494679952609
0.860053015417633904
0.895362692681752614
0.931250018643261623
0.973070635191851885
1.02206309564816289
0.714684423860030837
0.712501737934230661
0.722098657577101122
0.735717612700620194
0.745154560010879763
0.760520083374447209
0.774002291955830035
0.798629786729933455
0.822033340794107503
0.850205474354522095
0.886257623192973853
0.929174991528110672
0.95756941444889232
0.993430651585406221
1.0308765344356543
1.0749023371037465
0.799774823777572141
0.804535289605458614
0.816192099213220001
0.810765703008180405
0.828845114500098346
0.84434439098166747
0.873260452130825815
0.887431338538297032
0.908294123429181366
0.93564190463519592
0.971379549423446731
0.998278085830398898
1.0187277995133921
1.05849019718809823
1.09044904447876112
1.13336069242455406
0.0848444008827209661
0.100775181024034169
0.126963305860268466
0.174858267013844298
0.224077860604567219
0.275766900680018023
0.329168320853011453
0.374741642066441005
0.437705883906615023
0.48171059932325283
0.53255175146380429
0.596905427295920998
0.636069421666586532
0.694708598578930969
0.7446021945484953
0.803392179395070349
0.113011671278930373
0.128221565856468711
0.151116633446294835
0.187200633720346787
0.244719452207821847
0.287828156829760484
0.339022740800448696
0.387219671596229997
0.446213423291730027
0.493295648627811056
0.54294286658698121
0.605534771702386121
0.646087126103273901
0.707992029214168928
0.751762127825115978
0.808777033408686119
0.186759245245739086
0.200971872102871818
0.218250509559558992
0.262785303526785474
0.298423770806182431
0.328188673424146093
0.377995162581603317
0.425162734172118917
0.476963603500553335
0.519240959832740212
0.570078952472333422
0.62350468297694972
0.663209063768801732
0.706278754099420758
0.781934689953576956
0.82027462140835028
0.278155149123621548
0.277383024804624179
0.286825496221345844
0.31624001561373577
0.354682306782893197
0.389663583198907537
0.431084328121018767
0.465005692009482829
0.522351826025298172
0.557598910644990897
0.602472403854669492
0.64965704650110756
0.696518157447339248
0.743831469468101192
0.804519034942175915
0.837389338052235588
0.36208999436004119
0.366036554359339572
0.378638432665593938
0.394082821112706705
0.420919034371263934
0.445984899468906237
0.488284235153531532
0.532801487436697085
0.559268898707497852
0.605907464775981786
0.648157444084404233
0.692407188490031245
0.739724151619984616
0.784589248848693743
0.823634524516969391
0.884383640917567382
0.4522409457640722
0.465101990818479305
0.470780001254618663
0.477504398835456478
0.497946468872887349
0.523048405568495078
0.55084442895287633
0.580261355307835736
0.614896976716906685
0.661780911520791326
0.695124195937266376
0.740062909703951721
0.78139941806866442
0.822343303875088583
0.873253018311587526
0.920378651727774777
0.548130555479917625
0.54889450869807388
0.547054182472830441
0.564731473613560242
0.578544824877600394
0.603397334427179355
0.626265614051752961
0.659982626739869405
0.687011336139471518
0.718209080741465722
0.761584347963842223
0.796048175414587944
0.84016222130002538
0.870885064812140453
0.917317791953111805
0.95944951066033024
0.624546792045680754
0.637104784197580432
0.631894680678184106
0.63986510754575654
0.666496176805057905
0.675569258063856592
0.70293879238040724
0.730302771707480813
0.758969661231537751
0.788620836996231089
0.821068631570703755
0.859010676891999614
0.899781453235522832
0.934101925067382877
0.969827994298094853
1.02569831749139584
0.721381585730301644
0.719573678500578073
0.715002265155716743
0.732410634626263213
0.746096052078066618
0.763670705756275936
0.784824440605264573
0.805087577779580066
0.834592483280067965
0.856833072438972887
0.887421945649531363
0.922845237784234551
0.969215496685494782
0.996023003667054097
1.04488595183409561
1.06829984759849661
0.808574197675099637
0.811211237773232341
0.811204969235147511
0.822076327960284625
0.826915080619384679
0.847136232888661356
0.86623776601722291
0.88355881616803944
0.913037519155796562
0.926967952713792731
0.95975584992424634
1.00167297555397705
1.02261022082469522
1.06082957378378229
1.09671516954402426
1.13652363179598592
0.0990405678749084473
0.111655956109364837
0.148206656305073681
0.191076914301440942
0.242084975646093686
0.289342153747878861
0.33927041778910727
0.399649486423941713
0.438094368720712446
0.490691485354641355
0.54069666100743119
0.592259396630416379
0.654159244246138472
0.713548163828503501
0.749696021874745711
0.802737827842702867
0.137044742394041574
0.148727991673628462
0.172188078827328173
0.207055349447179821
0.249437368492119921
0.300884256281736651
0.351244328966459685
0.391824108423557749
0.453844335963808465
0.497047750023571044
0.548377911674265195
0.605691791461030027
0.646489100695381014
0.696650337521987129
0.764179584232166587
0.817950007385677802
0.201665187392077283
0.215880750541523947
0.228072816051967747
0.255297943343225919
0.294150216561305411
0.340244231227134875
0.387004166061318877
0.419229592784786942
0.466667549475271226
0.517638665489334904
0.572708850287193871
0.628390992433170092
0.68086505132875208
0.71970924148212323
0.771637949451732252
0.819243802903393159
0.287169855316482425
0.294141894014197491
0.301563404276842417
0.326782769362131742
0.346447122734986568
0.38563039425477158
0.426765378681421781
0.468424808370553669
0.514033231782790923
0.545562245804909751
0.607231078433999039
0.649218169870804163
0.701383113321911611
0.7469966875851618
0.806476760458222031
0.851128321321804049
0.366631982196109263
0.365897119251222314
0.379172840383317777
0.408174563378070454
0.423985900862615728
0.450975270006391704
0.485668734298289995
0.525564434456901264
0.562901649244722302
0.603403983595337201
0.655011682189649447
0.696611693500633899
0.741769440591789175
0.792463618695605887
0.837824096029226806
0.877872515744471449
0.457983269426557871
0.458692080457852092
0.472624360027826762
0.480520122309183506
0.502564907333416744
0.522215563125097315
0.5500190216630233
0.592411810039056297
0.635498376101727325
0.668812421986660022
0.694067141323496117
0.743899444950297362
0.785611678540576674
0.829912898285590006
0.869660754746961473
0.918604414275991044
0.540435621273544498
0.536560884745472921
0.555513177951057147
0.56191899602600226
0.579903355156075051
0.60187671213150884
0.627322776195829435
0.656580653272361925
0.69461818181517021
0.729796285115171139
0.757625894950308632
0.794519572805634011
0.826539805503433755
0.888145503061374852
0.925937742832671606
0.967405404249827128
0.633629904491094575
0.639056289801183341
0.642159185632216634
0.656389449732680652
0.664730509112700041
0.69346765345156236
0.705959374340781709
0.731407465294197423
0.763623700477166656
0.789792160259073062
0.82422726619074671
0.86212817728280422
0.893330424052307448
0.93605563798674718
0.985660093118230551
1.02838259955618883
0.717380440671170683
0.725944972648045472
0.732198320172678274
0.728384953560725967
0.741303938612381752
0.761069673470741614
0.799874396783238906
0.810750805207655301
0.836333467985701073
0.862618233554913627
0.887719319179134603
0.920624154629070213
0.95994628197042231
0.992676712446667553
1.03293414715716159
1.07571442083430835
0.811581955497732155
0.812093907705759621
0.810419638299467726
0.827580753287158299
0.834168059323327937
0.844097872408229755
0.868369641610329479
0.888824019297502543
0.916900613369207473
0.927394860659051745
0.962213696638743121
0.994129910621300739
1.02553523725766293
1.06719233615179521
1.10198585897015944
1.1336728115283714
0.121674234867095943
0.137239483355860281
0.175184596926950376
0.198119191819965873
0.240703795566495599
0.293277443555686912
0.354507066472528221
0.394502626090266872
0.443271472479629447
0.494330932334249573
0.538391266197788432
0.59207102154072655
0.65662811891929318
0.706699007248232758
0.759042171658665499
0.806284097665117772
0.151609305091631619
0.154943178203460014
0.18411100886946849
0.222656486419268218
0.264682229860139839
0.304235936289805942
0.358554335063340779
0.396340802355925781
0.451239797755196015
0.495440501596373928
0.553349042136030644
0.600295921269680455
0.66126181156035102
0.70961326244811529
0.765843951250550603
0.811319150637564435
0.22233796819962956
0.221525615163586848
0.248535010099332682
0.268299010671342542
0.305187191831742366
0.347432424685361008
0.390982205354391987
0.438121043571400193
0.481070807395358069
0.525627645268056276
0.574836804491565045
0.61769462941122899
0.677868087551916965
0.722425237905571449
0.770572508160162095
0.827396250396592814
0.29154459824929041
0.296236929068149024
0.311570296994196194
0.337495644264365624
0.363265925081697749
0.391530359133312189
0.432262550080890873
0.466551388321753691
0.510323631079630635
0.568046484479420855
0.601432325150092706
0.653152335762435809
0.705559347366641054
0.75441819250970088
0.80264165817051325
0.854030453668325751
0.381178451794456918
0.380748596408548745
0.389659414242082891
0.422159729268815842
0.441874164814626491
0.465708237723431007
0.497715472645877177
0.537911302281104065
0.571044194871251909
0.60534143945672636
0.651243626947611287
0.700136231401489173
0.733082339134058181
0.794558008477870503
0.836190478591214092
0.880498926117946001
0.458468190268596976
0.462016808417481495
0.474180317268070917
0.48821160471048991
0.506813617624313539
0.545961217263839393
0.558717090797250848
0.599029918762851943
0.630512577388052331
0.665204021066358675
0.697320288727800608
0.746999459735477989
0.7940439589478413
0.831662262065339664
0.880211074334028343
0.920938444659681332
0.542290382713901731
0.548771998974526554
0.548502425730931442
0.568613835974013715
0.585739382405462305
0.609798661972602574
0.627784238105933312
0.662542919388118823
0.696548692776160605
0.730667033990224257
0.772912005212841757
0.812198142392925204
0.83708902765242954
0.88454403235827439
0.928664259491616684
0.969438329259911136
0.64711695205602715
0.640408467113631197
0.641814766379974255
0.657289491154827599
0.667320208913730673
0.695697115260040522
0.708283783712340131
0.746786791478119993
0.757522090614695887
0.795177188894218512
0.826569166808946321
0.864399136995750883
0.896003982286228684
0.947106201064296549
0.980562559050726534
1.02511207865343779
0.712670027292987007
0.721604748433305021
0.723676211855294294
0.743630371424455761
0.755768556013415749
0.757707944567902913
0.799143792474926729
0.810611795684996306
0.83724931104922462
0.862554638525902195
0.897144051143185517
0.92750662980776255
0.974757188522809237
1.00338767608212032
1.03501744948202568
1.08214277064787323
0.808790334695147051
0.812175587251013686
0.818828542223645095
0.832271651141660129
0.825597033573528205
0.850222661004751523
0.864649838820346406
0.88322113918506262
0.919878036478275374
0.936917693382842254
0.963748574773827138
1.00064477554015818
1.04249910727983042
1.06757508903202436
1.10125803528137989
1.13980544376872506
0.152745401859283481
0.161988561327200548
0.187220182356753639
0.210516903889296947
0.254643123923753489
0.30738978581643317
0.359758912930123853
0.399220012766586974
0.448180094740475987
0.492587399630972145
0.550604500574971345
0.596316511473580002
0.653457450784239446
0.70914633492266943
0.757628690379067327
0.814021198052208295
0.166001079130449036
0.171182417218541244
0.206329388772401701
0.233621643716796945
0.275205448308046552
0.307720836834825373
0.365843828867633003
0.410694281522990923
0.463345860998305881
0.508434235966464643
0.557826353973812528
0.609324119726379121
0.665387162712663294
0.72186635200751148
0.7717435156688498
0.81387484503430263
0.23337681765170229
0.247532778729624786
0.269329748896622756
0.281556911180248948
0.311367747845806231
0.354634348062755456
0.399844036968128869
0.441775026357055345
0.485127340446985245
0.538173084758482578
0.581435997249456271
0.626394579628053894
0.679201446929113994
0.724413242032513005
0.773727327563645262
0.829722834497082951
0.306096393635036657
0.313493043157690221
0.326691705999169524
0.348250713822138014
0.365037082246840283
0.407284513694689765
0.447514977427941441
0.469338455518657383
0.52118651940417926
0.575022982976789665
0.615053419867696238
0.666441310762093897
0.714032065666077798
0.761083852563234298
0.808003679366291472
0.861087333534352517
0.390637590585319716
0.395501732188010102
0.405015908264428959
0.410965894010861033
0.434522218822334494
0.475132618358804382
0.494382517206006178
0.529807961345441281
0.568668790143706415
0.621697221794528465
0.656834764813227556
0.702965550516835846
0.748650196741423191
0.790861850302441605
0.838724780840423123
0.887255338779504021
0.468644524028970444
0.47502596654158169
0.475400414831090912
0.495535448150641544
0.515653989874589103
0.549251737469186763
0.561909781747224391
0.605091165154478805
0.629918863087862602
0.670938238012973254
0.70486889984443124
0.749350494521231925
0.791685691397412294
0.837582395293671289
0.874896277766911257
0.922374124816147667
0.548663773341084626
0.560497211951625274
0.560992510542933642
0.579788445631662985
0.596027660895908196
0.612140459815205928
0.647629832004906869
0.667851712393772945
0.712787424597127961
0.730807921269746252
0.767431068737750355
0.809073835463703372
0.84180118407025406
0.890073101290615121
0.935490774640150957
0.970542557950535456
0.634987790311425604
0.641141379828418789
0.645842089971501498
0.657546839195413235
0.674248077860781558
0.687241801162432941
0.709897608656401613
0.746427770436853821
0.765653230936891638
0.809765612409381275
0.833085204034436422
0.860815490530145722
0.907795009482746718
0.942247331788726106
0.984529843181488284
1.03088184723236931
0.722236588813923941
0.73153935952865945
0.729422616527364509
0.743134074816273249
0.754477752534404411
0.778574138020880935
0.792622083627848695
0.824660869505465133
0.832331192273869425
0.876634297383275252
0.915688935652747671
0.933486185097493371
0.968642404385279598
1.0031506864135038
1.05113119361957952
1.07758071735848238
0.820189544457237574
0.816446548354724078
0.826422137255561573
0.82613977229577229
0.841193141775748776
0.855502197120778241
0.875070466570096017
0.891742824532565037
0.926962987457553012
0.950530195053555294
0.974354756589451476
0.996212344964345409
1.03349707667592616
1.06697351501146587
1.10452778241469929
1.13991797865402433
0.172254068851470959
0.185625263595611684
0.203845941159541438
0.247875391039458881
0.278626056552774726
0.311491907322267669
0.35989796972760324
0.403712000956904515
0.457755711122327547
0.515413220472012212
0.5673003106656338
0.61996801939019841
0.664625329620747052
0.710872623930152381
0.770441359980065354
0.820937443572370418
0.189775007238795396
0.196979551349749288
0.22340518466218634
0.259608671903572175
0.285763806625847105
0.33617033510765687
0.372995046282911691
0.419800666194639405
0.470101381128085971
0.515983346895104722
0.566775096853529226
0.607749391716317922
0.65884381760867583
0.723392479891946216
0.761864340129332129
0.81560560799756332
0.249427594062430313
0.258565917629032915
0.280167895836992753
0.294842437916559674
0.322519066634277651
0.366722450431971381
0.413495709918468457
0.440121735216565113
0.493784564133795734
0.540234748800330955
0.57747515242696934
0.639466160007784334
0.684845372127534824
0.735657231981516446
0.786089259338147994
0.8312126472931054
0.320637968265871209
0.315730042724169713
0.341766285214755605
0.348911695332732141
0.376650079985359709
0.427805361607894064
0.447454123736521603
0.486732402741740622
0.5265797855837685
0.576458407154343266
0.623067728670065102
0.66906360023992606
0.701783745298560691
0.761979241702667065
0.817550835826054811
0.857288910275484595
0.394908760048144847
0.400058485350861637
0.405151444999211463
0.424512349416139911
0.446860737342136383
0.479190244441870694
0.510621770497739269
0.556214938364302247
0.575743112435546989
0.617444826046622874
0.67176327906970501
0.710081597471022175
0.753457982215225197
0.801362547056122976
0.845416375027749356
0.888132728162519314
0.473454103237036739
0.467662442273248158
0.481230521682007362
0.507441949731819553
0.524041584171735408
0.547048206255902114
0.569563523119757775
0.610566878114833789
0.628692889486496043
0.675994456132023913
0.721695516232359946
0.760937740758099168
0.803524278776093781
0.847662542423662124
0.888707143247338682
0.927903512509005934
0.564519739681747068
0.571700948563693356
0.582949230813441521
0.585410725153289291
0.595738692594702579
0.613875471742574841
0.651835843310775487
0.677486136915006587
0.713316100718187296
0.730203035862228567
0.776169268763090447
0.82013466379846689
0.845665868049886749
0.889723662833297957
0.936409406231782815
0.980711204942184445
0.642218731413572552
0.656231578504720692
0.659218398728361299
0.662139816152502614
0.675493813201619608
0.703082974194202404
0.715783769453132268
0.750314987273318135
0.778003315558834063
0.803545135463494375
0.828764469955458827
0.866367583666549756
0.913694970710054344
0.941471485888343396
0.982555272772082433
1.03568599623799074
0.731063806332031607
0.730732615440594313
0.73942171899583764
0.751880842702123631
0.757417078709809677
0.783654704775475053
0.795296701070274725
0.822886471744059045
0.851568567710261681
0.879847645061450523
0.903345334306456582
0.94855504406132507
0.971594944078942757
1.01195947623982052
1.04126975953335554
1.08202322064217515
0.815767899352399684
0.819895179295569321
0.828189028221069101
0.834174067858851509
0.845945791231832112
0.869926430111910398
0.869622076549956491
0.89938026492257328
0.918147307252091927
0.95322485305974225
0.984025356706100474
1.01082633122810361
1.03852341921680424
1.07538240920772155
1.11179037523784463
1.14400612940541024
0.200200235843658453
0.207994724194915132
0.234743451277414972
0.254877241626372764
0.287403262313363883
0.330402217706044554
0.379793863755317207
0.407884140456234334
0.476928699823528923
0.517756063938140887
0.568438600460693055
0.62299426888228937
0.675106957156431098
0.731857920420260322
0.7674639103440688
0.832019408605130018
0.222647421749457314
0.232020509336596903
0.245006327125897511
0.280326945251888726
0.306132039215617602
0.344418403176319388
0.389886970022478241
0.428571110334678873
0.491440160709902596
0.52803765425251814
0.580156565283647341
0.630541385212310734
0.671607608577712845
0.729172132718091781
0.776190468831850611
0.836498242588717633
0.27019295988192471
0.27933777535236709
0.285791819280942272
0.31294083617108448
0.333471576107872869
0.378566754923926441
0.416838624671794944
0.458086238132998924
0.506985048015581419
0.551768103807199539
0.592919289903408586
0.636881535914267105
0.694777435761135931
0.746138923203581439
0.792643232468300818
0.831853140387360135
0.329987731774648074
0.337772186019528797
0.346634214457582857
0.369340739800536388
0.397990632292358204
0.42300053519505737
0.467006328310068053
0.49867474487085367
0.551456917112509437
0.582315566869927026
0.625445291965954331
0.670994862668674252
0.723794432413668698
0.782087857061315228
0.816269360827456825
0.872623604933420838
0.408886974877996079
0.414316342184287589
0.419970383891733245
0.4377133556233061
0.463815269307152056
0.487817952129837473
0.516380453088887137
0.552088505501510673
0.587231056653952366
0.627554433238861065
0.676004474169205061
0.711463829977863838
0.752488516200854218
0.806045646932390114
0.856253029315759195
0.89312067769188408
0.487833764050003615
0.489864150629503614
0.5016116132879469
0.513876661442883242
0.526927441552142328
0.554307484361860503
0.576640870603156053
0.610424888706190827
0.646807192537931619
0.690349300223279227
0.717780255622122998
0.76674426786223504
0.804545269277360808
0.856890327186001999
0.886633031411156458
0.932517423494991338
0.56481818572680631
0.572343622809758923
0.579334467712080192
0.595444808728272434
0.609839414506901378
0.624973738163464021
0.65037549575169884
0.681422510799231551
0.713113931501314746
0.748834216676502518
0.779110784599478468
0.825366860674868641
0.858671097691060092
0.888485276042249139
0.926411038612292681
0.984936292228992816
0.658783028342756038
0.660652577018000509
0.676917964352501844
0.671043879243503061
0.691034385768883874
0.708199334880568743
0.730922804487228239
0.753430834252124537
0.779556535979438747
0.811501645640382629
0.843594416174713646
0.881044286555279887
0.913694007004779429
0.954769932858652304
0.994631113009849299
1.02951766568424774