# vtk DataFile Version 3.0
vtk output
ASCII
DATASET POLYDATA
POINTS 122 float
0.140866 0 0.479746 0.121994 0.0704331 0.479746 0 0 0.5 
0.0704331 0.121994 0.479746 -6.15746e-09 0.140866 0.479746 -0.0704331 0.121994 0.479746 
-0.121994 0.0704331 0.479746 -0.140866 -1.23149e-08 0.479746 -0.121994 -0.0704332 0.479746 
-0.0704331 -0.121994 0.479746 1.84724e-08 -0.140866 0.479746 0.0704332 -0.121994 0.479746 
0.121994 -0.0704331 0.479746 0.140866 0 -0.479746 0 0 -0.5 
0.121994 0.0704331 -0.479746 0.0704331 0.121994 -0.479746 -6.15746e-09 0.140866 -0.479746 
-0.0704331 0.121994 -0.479746 -0.121994 0.0704331 -0.479746 -0.140866 -1.23149e-08 -0.479746 
-0.121994 -0.0704331 -0.479746 -0.0704331 -0.121994 -0.479746 1.84724e-08 -0.140866 -0.479746 
0.0704331 -0.121994 -0.479746 0.121994 -0.0704331 -0.479746 0.27032 0 0.420627 
0.234104 0.13516 0.420627 0.377875 0 0.32743 0.327249 0.188937 0.32743 
0.454816 0 0.207707 0.393882 0.227408 0.207707 0.494911 0 0.0711574 
0.428605 0.247455 0.0711574 0.494911 0 -0.0711574 0.428605 0.247455 -0.0711574 
0.454816 0 -0.207708 0.393882 0.227408 -0.207708 0.377875 0 -0.32743 
0.327249 0.188937 -0.32743 0.27032 0 -0.420627 0.234104 0.13516 -0.420627 
0.13516 0.234104 0.420627 0.188937 0.327249 0.32743 0.227408 0.393882 0.207707 
0.247455 0.428605 0.0711574 0.247455 0.428605 -0.0711574 0.227408 0.393882 -0.207708 
0.188937 0.327249 -0.32743 0.13516 0.234104 -0.420627 -1.18161e-08 0.27032 0.420627 
-1.65174e-08 0.377875 0.32743 -1.98806e-08 0.454816 0.207707 -2.16332e-08 0.494911 0.0711574 
-2.16332e-08 0.494911 -0.0711574 -1.98806e-08 0.454816 -0.207708 -1.65174e-08 0.377875 -0.32743 
-1.18161e-08 0.27032 -0.420627 -0.13516 0.234104 0.420627 -0.188937 0.327249 0.32743 
-0.227408 0.393882 0.207707 -0.247455 0.428605 0.0711574 -0.247455 0.428605 -0.0711574 
-0.227408 0.393882 -0.207708 -0.188937 0.327249 -0.32743 -0.13516 0.234104 -0.420627 
-0.234104 0.13516 0.420627 -0.327249 0.188937 0.32743 -0.393882 0.227408 0.207707 
-0.428605 0.247455 0.0711574 -0.428605 0.247455 -0.0711574 -0.393882 0.227408 -0.207708 
-0.327249 0.188937 -0.32743 -0.234104 0.13516 -0.420627 -0.27032 -2.36322e-08 0.420627 
-0.377875 -3.30349e-08 0.32743 -0.454816 -3.97613e-08 0.207707 -0.494911 -4.32665e-08 0.0711574 
-0.494911 -4.32665e-08 -0.0711574 -0.454816 -3.97613e-08 -0.207708 -0.377875 -3.30349e-08 -0.32743 
-0.27032 -2.36322e-08 -0.420627 -0.234104 -0.13516 0.420627 -0.327249 -0.188937 0.32743 
-0.393882 -0.227408 0.207707 -0.428605 -0.247455 0.0711574 -0.428605 -0.247455 -0.0711574 
-0.393882 -0.227408 -0.207708 -0.327249 -0.188937 -0.32743 -0.234104 -0.13516 -0.420627 
-0.13516 -0.234104 0.420627 -0.188937 -0.327249 0.32743 -0.227408 -0.393882 0.207707 
-0.247455 -0.428605 0.0711574 -0.247455 -0.428605 -0.0711574 -0.227408 -0.393882 -0.207708 
-0.188937 -0.327249 -0.32743 -0.13516 -0.234104 -0.420627 3.54482e-08 -0.27032 0.420627 
4.95523e-08 -0.377875 0.32743 5.96419e-08 -0.454816 0.207707 6.48997e-08 -0.494911 0.0711574 
6.48997e-08 -0.494911 -0.0711574 5.96419e-08 -0.454816 -0.207708 4.95523e-08 -0.377875 -0.32743 
3.54482e-08 -0.27032 -0.420627 0.13516 -0.234104 0.420627 0.188937 -0.327249 0.32743 
0.227408 -0.393882 0.207707 0.247455 -0.428605 0.0711574 0.247455 -0.428605 -0.0711574 
0.227408 -0.393882 -0.207708 0.188937 -0.327249 -0.32743 0.13516 -0.234104 -0.420627 
0.234104 -0.13516 0.420627 0.327249 -0.188937 0.32743 0.393882 -0.227408 0.207707 
0.428605 -0.247455 0.0711574 0.428605 -0.247455 -0.0711574 0.393882 -0.227408 -0.207708 
0.327249 -0.188937 -0.32743 0.234104 -0.13516 -0.420627 
LINES 20 400
72 0 1 2 0 12 11 10 9 8 7 6 5 4 3 1 27 26 0 27 29 28 26 29 31 30 28 31 33 32 30 33 35 34 32 35 37 36 34 37 39 38 36 39 41 40 38 41 15 14 13 15 16 14 17 16 41 49 39 48 37 47 35 46 33 45 31 44 29 43 27 42 1 
57 3 2 4 50 42 3 50 51 43 42 51 52 44 43 52 53 45 44 53 54 46 45 54 55 47 46 55 56 48 47 56 57 49 48 57 17 18 14 19 18 57 65 56 64 55 63 54 62 53 61 52 60 51 59 50 58 4 
57 5 2 6 66 58 5 66 67 59 58 67 68 60 59 68 69 61 60 69 70 62 61 70 71 63 62 71 72 64 63 72 73 65 64 73 19 20 14 21 20 73 81 72 80 71 79 70 78 69 77 68 76 67 75 66 74 6 
57 7 2 8 82 74 7 82 83 75 74 83 84 76 75 84 85 77 76 85 86 78 77 86 87 79 78 87 88 80 79 88 89 81 80 89 21 22 14 23 22 89 97 88 96 87 95 86 94 85 93 84 92 83 91 82 90 8 
57 9 2 10 98 90 9 98 99 91 90 99 100 92 91 100 101 93 92 101 102 94 93 102 103 95 94 103 104 96 95 104 105 97 96 105 23 24 14 25 24 105 113 104 112 103 111 102 110 101 109 100 108 99 107 98 106 10 
39 11 2 12 114 106 11 114 115 107 106 115 116 108 107 116 117 109 108 117 118 110 109 118 119 111 110 119 120 112 111 120 121 113 112 121 25 13 40 15 
3 16 49 17 
3 18 65 19 
3 20 81 21 
3 22 97 23 
3 24 113 25 
3 114 26 12 
3 115 28 114 
3 116 30 115 
3 117 32 116 
3 118 34 117 
3 119 36 118 
3 120 38 119 
3 121 40 120 
2 13 121 

POINT_DATA 122
SCALARS Elevation float
LOOKUP_TABLE default
0.739873 0.739873 0.75 0.739873 0.739873 0.739873 0.739873 0.739873 0.739873 
0.739873 0.739873 0.739873 0.739873 0.260127 0.25 0.260127 0.260127 0.260127 
0.260127 0.260127 0.260127 0.260127 0.260127 0.260127 0.260127 0.260127 0.710313 
0.710313 0.663715 0.663715 0.603854 0.603854 0.535579 0.535579 0.464421 0.464421 
0.396146 0.396146 0.336285 0.336285 0.289687 0.289687 0.710313 0.663715 0.603854 
0.535579 0.464421 0.396146 0.336285 0.289687 0.710313 0.663715 0.603854 0.535579 
0.464421 0.396146 0.336285 0.289687 0.710313 0.663715 0.603854 0.535579 0.464421 
0.396146 0.336285 0.289687 0.710313 0.663715 0.603854 0.535579 0.464421 0.396146 
0.336285 0.289687 0.710313 0.663715 0.603854 0.535579 0.464421 0.396146 0.336285 
0.289687 0.710313 0.663715 0.603854 0.535579 0.464421 0.396146 0.336285 0.289687 
0.710313 0.663715 0.603854 0.535579 0.464421 0.396146 0.336285 0.289687 0.710313 
0.663715 0.603854 0.535579 0.464421 0.396146 0.336285 0.289687 0.710313 0.663715 
0.603854 0.535579 0.464421 0.396146 0.336285 0.289687 0.710313 0.663715 0.603854 
0.535579 0.464421 0.396146 0.336285 0.289687 
NORMALS Normals float
0.281733 0 0.959493 0.243988 0.140866 0.959493 0 0 1 
0.140866 0.243988 0.959493 -1.23149e-08 0.281733 0.959493 -0.140866 0.243988 0.959493 
-0.243988 0.140866 0.959493 -0.281733 -2.46298e-08 0.959493 -0.243988 -0.140866 0.959493 
-0.140866 -0.243988 0.959493 3.69448e-08 -0.281733 0.959493 0.140866 -0.243988 0.959493 
0.243988 -0.140866 0.959493 0.281732 0 -0.959493 0 0 -1 
0.243987 0.140866 -0.959493 0.140866 0.243987 -0.959493 -1.23149e-08 0.281732 -0.959493 
-0.140866 0.243987 -0.959493 -0.243988 0.140866 -0.959493 -0.281732 -2.46298e-08 -0.959493 
-0.243987 -0.140866 -0.959493 -0.140866 -0.243988 -0.959493 3.69448e-08 -0.281732 -0.959493 
0.140866 -0.243987 -0.959493 0.243988 -0.140866 -0.959493 0.540641 0 0.841254 
0.468209 0.27032 0.841254 0.75575 0 0.654861 0.654498 0.377875 0.654861 
0.909632 0 0.415415 0.787764 0.454816 0.415415 0.989821 0 0.142315 
0.857211 0.494911 0.142315 0.989821 0 -0.142315 0.857211 0.494911 -0.142315 
0.909632 0 -0.415415 0.787764 0.454816 -0.415415 0.75575 0 -0.654861 
0.654498 0.377875 -0.654861 0.540641 0 -0.841254 0.468209 0.27032 -0.841254 
0.27032 0.468209 0.841254 0.377875 0.654498 0.654861 0.454816 0.787764 0.415415 
0.494911 0.857211 0.142315 0.494911 0.857211 -0.142315 0.454816 0.787764 -0.415415 
0.377875 0.654498 -0.654861 0.27032 0.468209 -0.841254 -2.36322e-08 0.540641 0.841254 
-3.30349e-08 0.75575 0.654861 -3.97613e-08 0.909632 0.415415 -4.32665e-08 0.989821 0.142315 
-4.32665e-08 0.989821 -0.142315 -3.97613e-08 0.909632 -0.415415 -3.30349e-08 0.75575 -0.654861 
-2.36322e-08 0.540641 -0.841254 -0.27032 0.468209 0.841254 -0.377875 0.654498 0.654861 
-0.454816 0.787764 0.415415 -0.494911 0.857211 0.142315 -0.494911 0.85721 -0.142315 
-0.454816 0.787764 -0.415415 -0.377875 0.654498 -0.654861 -0.27032 0.468209 -0.841254 
-0.468209 0.27032 0.841254 -0.654498 0.377875 0.654861 -0.787764 0.454816 0.415415 
-0.857211 0.494911 0.142315 -0.857211 0.494911 -0.142315 -0.787764 0.454816 -0.415415 
-0.654498 0.377875 -0.654861 -0.468209 0.27032 -0.841254 -0.540641 -4.72643e-08 0.841254 
-0.75575 -6.60697e-08 0.654861 -0.909632 -7.95226e-08 0.415415 -0.989821 -8.65329e-08 0.142315 
-0.989821 -8.65329e-08 -0.142315 -0.909632 -7.95226e-08 -0.415415 -0.75575 -6.60697e-08 -0.654861 
-0.540641 -4.72643e-08 -0.841254 -0.468209 -0.27032 0.841254 -0.654498 -0.377875 0.654861 
-0.787764 -0.454816 0.415415 -0.85721 -0.494911 0.142315 -0.85721 -0.494911 -0.142315 
-0.787764 -0.454816 -0.415415 -0.654498 -0.377875 -0.654861 -0.468209 -0.27032 -0.841254 
-0.27032 -0.468209 0.841254 -0.377875 -0.654498 0.654861 -0.454816 -0.787764 0.415415 
-0.494911 -0.857211 0.142315 -0.494911 -0.857211 -0.142315 -0.454816 -0.787764 -0.415415 
-0.377875 -0.654498 -0.654861 -0.27032 -0.468209 -0.841254 7.08965e-08 -0.540641 0.841254 
9.91046e-08 -0.75575 0.654861 1.19284e-07 -0.909632 0.415415 1.29799e-07 -0.989821 0.142315 
1.29799e-07 -0.989821 -0.142315 1.19284e-07 -0.909632 -0.415415 9.91046e-08 -0.75575 -0.654861 
7.08965e-08 -0.540641 -0.841254 0.27032 -0.468209 0.841254 0.377875 -0.654498 0.654861 
0.454816 -0.787764 0.415415 0.494911 -0.85721 0.142315 0.494911 -0.85721 -0.142315 
0.454816 -0.787764 -0.415415 0.377875 -0.654498 -0.654861 0.27032 -0.468209 -0.841254 
0.468209 -0.27032 0.841254 0.654498 -0.377875 0.654861 0.787764 -0.454816 0.415415 
0.857211 -0.494911 0.142315 0.857211 -0.494911 -0.142315 0.787764 -0.454816 -0.415415 
0.654498 -0.377875 -0.654861 0.468209 -0.27032 -0.841254 
