# vtk DataFile Version 3.0
vtk output
ASCII
DATASET POLYDATA
POINTS 122 float
0.140866 0 0.479746 0.121994 0.0704331 0.479746 0 0 0.5 
0.0704331 0.121994 0.479746 -6.15746e-09 0.140866 0.479746 -0.0704331 0.121994 0.479746 
-0.121994 0.0704331 0.479746 -0.140866 -1.23149e-08 0.479746 -0.121994 -0.0704332 0.479746 
-0.0704331 -0.121994 0.479746 1.84724e-08 -0.140866 0.479746 0.0704332 -0.121994 0.479746 
0.121994 -0.0704331 0.479746 0.140866 0 -0.479746 0 0 -0.5 
0.121994 0.0704331 -0.479746 0.0704331 0.121994 -0.479746 -6.15746e-09 0.140866 -0.479746 
-0.0704331 0.121994 -0.479746 -0.121994 0.0704331 -0.479746 -0.140866 -1.23149e-08 -0.479746 
-0.121994 -0.0704331 -0.479746 -0.0704331 -0.121994 -0.479746 1.84724e-08 -0.140866 -0.479746 
0.0704331 -0.121994 -0.479746 0.121994 -0.0704331 -0.479746 0.27032 0 0.420627 
0.234104 0.13516 0.420627 0.377875 0 0.32743 0.327249 0.188937 0.32743 
0.454816 0 0.207707 0.393882 0.227408 0.207707 0.494911 0 0.0711574 
0.428605 0.247455 0.0711574 0.494911 0 -0.0711574 0.428605 0.247455 -0.0711574 
0.454816 0 -0.207708 0.393882 0.227408 -0.207708 0.377875 0 -0.32743 
0.327249 0.188937 -0.32743 0.27032 0 -0.420627 0.234104 0.13516 -0.420627 
0.13516 0.234104 0.420627 0.188937 0.327249 0.32743 0.227408 0.393882 0.207707 
0.247455 0.428605 0.0711574 0.247455 0.428605 -0.0711574 0.227408 0.393882 -0.207708 
0.188937 0.327249 -0.32743 0.13516 0.234104 -0.420627 -1.18161e-08 0.27032 0.420627 
-1.65174e-08 0.377875 0.32743 -1.98806e-08 0.454816 0.207707 -2.16332e-08 0.494911 0.0711574 
-2.16332e-08 0.494911 -0.0711574 -1.98806e-08 0.454816 -0.207708 -1.65174e-08 0.377875 -0.32743 
-1.18161e-08 0.27032 -0.420627 -0.13516 0.234104 0.420627 -0.188937 0.327249 0.32743 
-0.227408 0.393882 0.207707 -0.247455 0.428605 0.0711574 -0.247455 0.428605 -0.0711574 
-0.227408 0.393882 -0.207708 -0.188937 0.327249 -0.32743 -0.13516 0.234104 -0.420627 
-0.234104 0.13516 0.420627 -0.327249 0.188937 0.32743 -0.393882 0.227408 0.207707 
-0.428605 0.247455 0.0711574 -0.428605 0.247455 -0.0711574 -0.393882 0.227408 -0.207708 
-0.327249 0.188937 -0.32743 -0.234104 0.13516 -0.420627 -0.27032 -2.36322e-08 0.420627 
-0.377875 -3.30349e-08 0.32743 -0.454816 -3.97613e-08 0.207707 -0.494911 -4.32665e-08 0.0711574 
-0.494911 -4.32665e-08 -0.0711574 -0.454816 -3.97613e-08 -0.207708 -0.377875 -3.30349e-08 -0.32743 
-0.27032 -2.36322e-08 -0.420627 -0.234104 -0.13516 0.420627 -0.327249 -0.188937 0.32743 
-0.393882 -0.227408 0.207707 -0.428605 -0.247455 0.0711574 -0.428605 -0.247455 -0.0711574 
-0.393882 -0.227408 -0.207708 -0.327249 -0.188937 -0.32743 -0.234104 -0.13516 -0.420627 
-0.13516 -0.234104 0.420627 -0.188937 -0.327249 0.32743 -0.227408 -0.393882 0.207707 
-0.247455 -0.428605 0.0711574 -0.247455 -0.428605 -0.0711574 -0.227408 -0.393882 -0.207708 
-0.188937 -0.327249 -0.32743 -0.13516 -0.234104 -0.420627 3.54482e-08 -0.27032 0.420627 
4.95523e-08 -0.377875 0.32743 5.96419e-08 -0.454816 0.207707 6.48997e-08 -0.494911 0.0711574 
6.48997e-08 -0.494911 -0.0711574 5.96419e-08 -0.454816 -0.207708 4.95523e-08 -0.377875 -0.32743 
3.54482e-08 -0.27032 -0.420627 0.13516 -0.234104 0.420627 0.188937 -0.327249 0.32743 
0.227408 -0.393882 0.207707 0.247455 -0.428605 0.0711574 0.247455 -0.428605 -0.0711574 
0.227408 -0.393882 -0.207708 0.188937 -0.327249 -0.32743 0.13516 -0.234104 -0.420627 
0.234104 -0.13516 0.420627 0.327249 -0.188937 0.32743 0.393882 -0.227408 0.207707 
0.428605 -0.247455 0.0711574 0.428605 -0.247455 -0.0711574 0.393882 -0.227408 -0.207708 
0.327249 -0.188937 -0.32743 0.234104 -0.13516 -0.420627 
LINES 360 1080
2 0 1 
2 1 2 
2 2 0 
2 1 3 
2 3 2 
2 3 4 
2 4 2 
2 4 5 
2 5 2 
2 5 6 
2 6 2 
2 6 7 
2 7 2 
2 7 8 
2 8 2 
2 8 9 
2 9 2 
2 9 10 
2 10 2 
2 10 11 
2 11 2 
2 11 12 
2 12 2 
2 12 0 
2 13 14 
2 14 15 
2 15 13 
2 14 16 
2 16 15 
2 14 17 
2 17 16 
2 14 18 
2 18 17 
2 14 19 
2 19 18 
2 14 20 
2 20 19 
2 14 21 
2 21 20 
2 14 22 
2 22 21 
2 14 23 
2 23 22 
2 14 24 
2 24 23 
2 14 25 
2 25 24 
2 13 25 
2 0 26 
2 26 27 
2 27 0 
2 27 1 
2 26 28 
2 28 29 
2 29 26 
2 29 27 
2 28 30 
2 30 31 
2 31 28 
2 31 29 
2 30 32 
2 32 33 
2 33 30 
2 33 31 
2 32 34 
2 34 35 
2 35 32 
2 35 33 
2 34 36 
2 36 37 
2 37 34 
2 37 35 
2 36 38 
2 38 39 
2 39 36 
2 39 37 
2 38 40 
2 40 41 
2 41 38 
2 41 39 
2 40 13 
2 15 40 
2 15 41 
2 27 42 
2 42 1 
2 42 3 
2 29 43 
2 43 27 
2 43 42 
2 31 44 
2 44 29 
2 44 43 
2 33 45 
2 45 31 
2 45 44 
2 35 46 
2 46 33 
2 46 45 
2 37 47 
2 47 35 
2 47 46 
2 39 48 
2 48 37 
2 48 47 
2 41 49 
2 49 39 
2 49 48 
2 16 41 
2 16 49 
2 42 50 
2 50 3 
2 50 4 
2 43 51 
2 51 42 
2 51 50 
2 44 52 
2 52 43 
2 52 51 
2 45 53 
2 53 44 
2 53 52 
2 46 54 
2 54 45 
2 54 53 
2 47 55 
2 55 46 
2 55 54 
2 48 56 
2 56 47 
2 56 55 
2 49 57 
2 57 48 
2 57 56 
2 17 49 
2 17 57 
2 50 58 
2 58 4 
2 58 5 
2 51 59 
2 59 50 
2 59 58 
2 52 60 
2 60 51 
2 60 59 
2 53 61 
2 61 52 
2 61 60 
2 54 62 
2 62 53 
2 62 61 
2 55 63 
2 63 54 
2 63 62 
2 56 64 
2 64 55 
2 64 63 
2 57 65 
2 65 56 
2 65 64 
2 18 57 
2 18 65 
2 58 66 
2 66 5 
2 66 6 
2 59 67 
2 67 58 
2 67 66 
2 60 68 
2 68 59 
2 68 67 
2 61 69 
2 69 60 
2 69 68 
2 62 70 
2 70 61 
2 70 69 
2 63 71 
2 71 62 
2 71 70 
2 64 72 
2 72 63 
2 72 71 
2 65 73 
2 73 64 
2 73 72 
2 19 65 
2 19 73 
2 66 74 
2 74 6 
2 74 7 
2 67 75 
2 75 66 
2 75 74 
2 68 76 
2 76 67 
2 76 75 
2 69 77 
2 77 68 
2 77 76 
2 70 78 
2 78 69 
2 78 77 
2 71 79 
2 79 70 
2 79 78 
2 72 80 
2 80 71 
2 80 79 
2 73 81 
2 81 72 
2 81 80 
2 20 73 
2 20 81 
2 74 82 
2 82 7 
2 82 8 
2 75 83 
2 83 74 
2 83 82 
2 76 84 
2 84 75 
2 84 83 
2 77 85 
2 85 76 
2 85 84 
2 78 86 
2 86 77 
2 86 85 
2 79 87 
2 87 78 
2 87 86 
2 80 88 
2 88 79 
2 88 87 
2 81 89 
2 89 80 
2 89 88 
2 21 81 
2 21 89 
2 82 90 
2 90 8 
2 90 9 
2 83 91 
2 91 82 
2 91 90 
2 84 92 
2 92 83 
2 92 91 
2 85 93 
2 93 84 
2 93 92 
2 86 94 
2 94 85 
2 94 93 
2 87 95 
2 95 86 
2 95 94 
2 88 96 
2 96 87 
2 96 95 
2 89 97 
2 97 88 
2 97 96 
2 22 89 
2 22 97 
2 90 98 
2 98 9 
2 98 10 
2 91 99 
2 99 90 
2 99 98 
2 92 100 
2 100 91 
2 100 99 
2 93 101 
2 101 92 
2 101 100 
2 94 102 
2 102 93 
2 102 101 
2 95 103 
2 103 94 
2 103 102 
2 96 104 
2 104 95 
2 104 103 
2 97 105 
2 105 96 
2 105 104 
2 23 97 
2 23 105 
2 98 106 
2 106 10 
2 106 11 
2 99 107 
2 107 98 
2 107 106 
2 100 108 
2 108 99 
2 108 107 
2 101 109 
2 109 100 
2 109 108 
2 102 110 
2 110 101 
2 110 109 
2 103 111 
2 111 102 
2 111 110 
2 104 112 
2 112 103 
2 112 111 
2 105 113 
2 113 104 
2 113 112 
2 24 105 
2 24 113 
2 106 114 
2 114 11 
2 114 12 
2 107 115 
2 115 106 
2 115 114 
2 108 116 
2 116 107 
2 116 115 
2 109 117 
2 117 108 
2 117 116 
2 110 118 
2 118 109 
2 118 117 
2 111 119 
2 119 110 
2 119 118 
2 112 120 
2 120 111 
2 120 119 
2 113 121 
2 121 112 
2 121 120 
2 25 113 
2 25 121 
2 114 26 
2 26 12 
2 115 28 
2 28 114 
2 116 30 
2 30 115 
2 117 32 
2 32 116 
2 118 34 
2 34 117 
2 119 36 
2 36 118 
2 120 38 
2 38 119 
2 121 40 
2 40 120 
2 13 121 

POINT_DATA 122
SCALARS Elevation float
LOOKUP_TABLE default
0.739873 0.739873 0.75 0.739873 0.739873 0.739873 0.739873 0.739873 0.739873 
0.739873 0.739873 0.739873 0.739873 0.260127 0.25 0.260127 0.260127 0.260127 
0.260127 0.260127 0.260127 0.260127 0.260127 0.260127 0.260127 0.260127 0.710313 
0.710313 0.663715 0.663715 0.603854 0.603854 0.535579 0.535579 0.464421 0.464421 
0.396146 0.396146 0.336285 0.336285 0.289687 0.289687 0.710313 0.663715 0.603854 
0.535579 0.464421 0.396146 0.336285 0.289687 0.710313 0.663715 0.603854 0.535579 
0.464421 0.396146 0.336285 0.289687 0.710313 0.663715 0.603854 0.535579 0.464421 
0.396146 0.336285 0.289687 0.710313 0.663715 0.603854 0.535579 0.464421 0.396146 
0.336285 0.289687 0.710313 0.663715 0.603854 0.535579 0.464421 0.396146 0.336285 
0.289687 0.710313 0.663715 0.603854 0.535579 0.464421 0.396146 0.336285 0.289687 
0.710313 0.663715 0.603854 0.535579 0.464421 0.396146 0.336285 0.289687 0.710313 
0.663715 0.603854 0.535579 0.464421 0.396146 0.336285 0.289687 0.710313 0.663715 
0.603854 0.535579 0.464421 0.396146 0.336285 0.289687 0.710313 0.663715 0.603854 
0.535579 0.464421 0.396146 0.336285 0.289687 
NORMALS Normals float
0.281733 0 0.959493 0.243988 0.140866 0.959493 0 0 1 
0.140866 0.243988 0.959493 -1.23149e-08 0.281733 0.959493 -0.140866 0.243988 0.959493 
-0.243988 0.140866 0.959493 -0.281733 -2.46298e-08 0.959493 -0.243988 -0.140866 0.959493 
-0.140866 -0.243988 0.959493 3.69448e-08 -0.281733 0.959493 0.140866 -0.243988 0.959493 
0.243988 -0.140866 0.959493 0.281732 0 -0.959493 0 0 -1 
0.243987 0.140866 -0.959493 0.140866 0.243987 -0.959493 -1.23149e-08 0.281732 -0.959493 
-0.140866 0.243987 -0.959493 -0.243988 0.140866 -0.959493 -0.281732 -2.46298e-08 -0.959493 
-0.243987 -0.140866 -0.959493 -0.140866 -0.243988 -0.959493 3.69448e-08 -0.281732 -0.959493 
0.140866 -0.243987 -0.959493 0.243988 -0.140866 -0.959493 0.540641 0 0.841254 
0.468209 0.27032 0.841254 0.75575 0 0.654861 0.654498 0.377875 0.654861 
0.909632 0 0.415415 0.787764 0.454816 0.415415 0.989821 0 0.142315 
0.857211 0.494911 0.142315 0.989821 0 -0.142315 0.857211 0.494911 -0.142315 
0.909632 0 -0.415415 0.787764 0.454816 -0.415415 0.75575 0 -0.654861 
0.654498 0.377875 -0.654861 0.540641 0 -0.841254 0.468209 0.27032 -0.841254 
0.27032 0.468209 0.841254 0.377875 0.654498 0.654861 0.454816 0.787764 0.415415 
0.494911 0.857211 0.142315 0.494911 0.857211 -0.142315 0.454816 0.787764 -0.415415 
0.377875 0.654498 -0.654861 0.27032 0.468209 -0.841254 -2.36322e-08 0.540641 0.841254 
-3.30349e-08 0.75575 0.654861 -3.97613e-08 0.909632 0.415415 -4.32665e-08 0.989821 0.142315 
-4.32665e-08 0.989821 -0.142315 -3.97613e-08 0.909632 -0.415415 -3.30349e-08 0.75575 -0.654861 
-2.36322e-08 0.540641 -0.841254 -0.27032 0.468209 0.841254 -0.377875 0.654498 0.654861 
-0.454816 0.787764 0.415415 -0.494911 0.857211 0.142315 -0.494911 0.85721 -0.142315 
-0.454816 0.787764 -0.415415 -0.377875 0.654498 -0.654861 -0.27032 0.468209 -0.841254 
-0.468209 0.27032 0.841254 -0.654498 0.377875 0.654861 -0.787764 0.454816 0.415415 
-0.857211 0.494911 0.142315 -0.857211 0.494911 -0.142315 -0.787764 0.454816 -0.415415 
-0.654498 0.377875 -0.654861 -0.468209 0.27032 -0.841254 -0.540641 -4.72643e-08 0.841254 
-0.75575 -6.60697e-08 0.654861 -0.909632 -7.95226e-08 0.415415 -0.989821 -8.65329e-08 0.142315 
-0.989821 -8.65329e-08 -0.142315 -0.909632 -7.95226e-08 -0.415415 -0.75575 -6.60697e-08 -0.654861 
-0.540641 -4.72643e-08 -0.841254 -0.468209 -0.27032 0.841254 -0.654498 -0.377875 0.654861 
-0.787764 -0.454816 0.415415 -0.85721 -0.494911 0.142315 -0.85721 -0.494911 -0.142315 
-0.787764 -0.454816 -0.415415 -0.654498 -0.377875 -0.654861 -0.468209 -0.27032 -0.841254 
-0.27032 -0.468209 0.841254 -0.377875 -0.654498 0.654861 -0.454816 -0.787764 0.415415 
-0.494911 -0.857211 0.142315 -0.494911 -0.857211 -0.142315 -0.454816 -0.787764 -0.415415 
-0.377875 -0.654498 -0.654861 -0.27032 -0.468209 -0.841254 7.08965e-08 -0.540641 0.841254 
9.91046e-08 -0.75575 0.654861 1.19284e-07 -0.909632 0.415415 1.29799e-07 -0.989821 0.142315 
1.29799e-07 -0.989821 -0.142315 1.19284e-07 -0.909632 -0.415415 9.91046e-08 -0.75575 -0.654861 
7.08965e-08 -0.540641 -0.841254 0.27032 -0.468209 0.841254 0.377875 -0.654498 0.654861 
0.454816 -0.787764 0.415415 0.494911 -0.85721 0.142315 0.494911 -0.85721 -0.142315 
0.454816 -0.787764 -0.415415 0.377875 -0.654498 -0.654861 0.27032 -0.468209 -0.841254 
0.468209 -0.27032 0.841254 0.654498 -0.377875 0.654861 0.787764 -0.454816 0.415415 
0.857211 -0.494911 0.142315 0.857211 -0.494911 -0.142315 0.787764 -0.454816 -0.415415 
0.654498 -0.377875 -0.654861 0.468209 -0.27032 -0.841254 
