# vtk DataFile Version 3.0
vtk output
ASCII
DATASET POLYDATA
POINTS 122 float
0 0 0.5 0 0 -0.5 0.140866 0 0.479746 
0.27032 0 0.420627 0.377875 0 0.32743 0.454816 0 0.207707 
0.494911 0 0.0711574 0.494911 0 -0.0711574 0.454816 0 -0.207708 
0.377875 0 -0.32743 0.27032 0 -0.420627 0.140866 0 -0.479746 
0.121994 0.0704331 0.479746 0.234104 0.13516 0.420627 0.327249 0.188937 0.32743 
0.393882 0.227408 0.207707 0.428605 0.247455 0.0711574 0.428605 0.247455 -0.0711574 
0.393882 0.227408 -0.207708 0.327249 0.188937 -0.32743 0.234104 0.13516 -0.420627 
0.121994 0.0704331 -0.479746 0.0704331 0.121994 0.479746 0.13516 0.234104 0.420627 
0.188937 0.327249 0.32743 0.227408 0.393882 0.207707 0.247455 0.428605 0.0711574 
0.247455 0.428605 -0.0711574 0.227408 0.393882 -0.207708 0.188937 0.327249 -0.32743 
0.13516 0.234104 -0.420627 0.0704331 0.121994 -0.479746 -6.15746e-09 0.140866 0.479746 
-1.18161e-08 0.27032 0.420627 -1.65174e-08 0.377875 0.32743 -1.98806e-08 0.454816 0.207707 
-2.16332e-08 0.494911 0.0711574 -2.16332e-08 0.494911 -0.0711574 -1.98806e-08 0.454816 -0.207708 
-1.65174e-08 0.377875 -0.32743 -1.18161e-08 0.27032 -0.420627 -6.15746e-09 0.140866 -0.479746 
-0.0704331 0.121994 0.479746 -0.13516 0.234104 0.420627 -0.188937 0.327249 0.32743 
-0.227408 0.393882 0.207707 -0.247455 0.428605 0.0711574 -0.247455 0.428605 -0.0711574 
-0.227408 0.393882 -0.207708 -0.188937 0.327249 -0.32743 -0.13516 0.234104 -0.420627 
-0.0704331 0.121994 -0.479746 -0.121994 0.0704331 0.479746 -0.234104 0.13516 0.420627 
-0.327249 0.188937 0.32743 -0.393882 0.227408 0.207707 -0.428605 0.247455 0.0711574 
-0.428605 0.247455 -0.0711574 -0.393882 0.227408 -0.207708 -0.327249 0.188937 -0.32743 
-0.234104 0.13516 -0.420627 -0.121994 0.0704331 -0.479746 -0.140866 -1.23149e-08 0.479746 
-0.27032 -2.36322e-08 0.420627 -0.377875 -3.30349e-08 0.32743 -0.454816 -3.97613e-08 0.207707 
-0.494911 -4.32665e-08 0.0711574 -0.494911 -4.32665e-08 -0.0711574 -0.454816 -3.97613e-08 -0.207708 
-0.377875 -3.30349e-08 -0.32743 -0.27032 -2.36322e-08 -0.420627 -0.140866 -1.23149e-08 -0.479746 
-0.121994 -0.0704332 0.479746 -0.234104 -0.13516 0.420627 -0.327249 -0.188937 0.32743 
-0.393882 -0.227408 0.207707 -0.428605 -0.247455 0.0711574 -0.428605 -0.247455 -0.0711574 
-0.393882 -0.227408 -0.207708 -0.327249 -0.188937 -0.32743 -0.234104 -0.13516 -0.420627 
-0.121994 -0.0704331 -0.479746 -0.0704331 -0.121994 0.479746 -0.13516 -0.234104 0.420627 
-0.188937 -0.327249 0.32743 -0.227408 -0.393882 0.207707 -0.247455 -0.428605 0.0711574 
-0.247455 -0.428605 -0.0711574 -0.227408 -0.393882 -0.207708 -0.188937 -0.327249 -0.32743 
-0.13516 -0.234104 -0.420627 -0.0704331 -0.121994 -0.479746 1.84724e-08 -0.140866 0.479746 
3.54482e-08 -0.27032 0.420627 4.95523e-08 -0.377875 0.32743 5.96419e-08 -0.454816 0.207707 
6.48997e-08 -0.494911 0.0711574 6.48997e-08 -0.494911 -0.0711574 5.96419e-08 -0.454816 -0.207708 
4.95523e-08 -0.377875 -0.32743 3.54482e-08 -0.27032 -0.420627 1.84724e-08 -0.140866 -0.479746 
0.0704332 -0.121994 0.479746 0.13516 -0.234104 0.420627 0.188937 -0.327249 0.32743 
0.227408 -0.393882 0.207707 0.247455 -0.428605 0.0711574 0.247455 -0.428605 -0.0711574 
0.227408 -0.393882 -0.207708 0.188937 -0.327249 -0.32743 0.13516 -0.234104 -0.420627 
0.0704331 -0.121994 -0.479746 0.121994 -0.0704331 0.479746 0.234104 -0.13516 0.420627 
0.327249 -0.188937 0.32743 0.393882 -0.227408 0.207707 0.428605 -0.247455 0.0711574 
0.428605 -0.247455 -0.0711574 0.393882 -0.227408 -0.207708 0.327249 -0.188937 -0.32743 
0.234104 -0.13516 -0.420627 0.121994 -0.0704331 -0.479746 
TRIANGLE_STRIPS 40 360
43 0 2 12 13 23 24 34 35 45 46 56 57 67 68 78 79 89 90 100 101 111 1 121 11 120 10 119 9 118 8 117 7 116 6 115 5 114 4 113 3 112 2 0 
21 0 12 22 23 33 34 44 45 55 56 66 67 77 78 88 89 99 100 110 111 121 
20 0 22 32 33 43 44 54 55 65 66 76 77 87 88 98 99 109 110 120 121 
18 0 32 42 43 53 54 64 65 75 76 86 87 97 98 108 109 119 120 
16 0 42 52 53 63 64 74 75 85 86 96 97 107 108 118 119 
14 0 52 62 63 73 74 84 85 95 96 106 107 117 118 
12 0 62 72 73 83 84 94 95 105 106 116 117 
10 0 72 82 83 93 94 104 105 115 116 
8 0 82 92 93 103 104 114 115 
6 0 92 102 103 113 114 
4 0 102 112 113 
19 11 1 21 31 20 30 19 29 18 28 17 27 16 26 15 25 14 24 13 
15 31 1 41 51 40 50 39 49 38 48 37 47 36 46 35 
11 51 1 61 71 60 70 59 69 58 68 57 
7 71 1 81 91 80 90 79 
4 1 101 91 90 
4 2 3 13 14 
4 3 4 14 15 
4 4 5 15 16 
4 5 6 16 17 
4 6 7 17 18 
4 7 8 18 19 
4 8 9 19 20 
4 9 10 20 21 
3 10 11 21 
4 24 25 35 36 
4 25 26 36 37 
4 26 27 37 38 
4 27 28 38 39 
4 28 29 39 40 
4 29 30 40 41 
3 30 31 41 
4 46 47 57 58 
4 47 48 58 59 
4 48 49 59 60 
4 49 50 60 61 
3 50 51 61 
4 68 69 79 80 
4 69 70 80 81 
3 70 71 81 

POINT_DATA 122
SCALARS Elevation float
LOOKUP_TABLE default
0.75 0.25 0.739873 0.710313 0.663715 0.603854 0.535579 0.464421 0.396146 
0.336285 0.289687 0.260127 0.739873 0.710313 0.663715 0.603854 0.535579 0.464421 
0.396146 0.336285 0.289687 0.260127 0.739873 0.710313 0.663715 0.603854 0.535579 
0.464421 0.396146 0.336285 0.289687 0.260127 0.739873 0.710313 0.663715 0.603854 
0.535579 0.464421 0.396146 0.336285 0.289687 0.260127 0.739873 0.710313 0.663715 
0.603854 0.535579 0.464421 0.396146 0.336285 0.289687 0.260127 0.739873 0.710313 
0.663715 0.603854 0.535579 0.464421 0.396146 0.336285 0.289687 0.260127 0.739873 
0.710313 0.663715 0.603854 0.535579 0.464421 0.396146 0.336285 0.289687 0.260127 
0.739873 0.710313 0.663715 0.603854 0.535579 0.464421 0.396146 0.336285 0.289687 
0.260127 0.739873 0.710313 0.663715 0.603854 0.535579 0.464421 0.396146 0.336285 
0.289687 0.260127 0.739873 0.710313 0.663715 0.603854 0.535579 0.464421 0.396146 
0.336285 0.289687 0.260127 0.739873 0.710313 0.663715 0.603854 0.535579 0.464421 
0.396146 0.336285 0.289687 0.260127 0.739873 0.710313 0.663715 0.603854 0.535579 
0.464421 0.396146 0.336285 0.289687 0.260127 
NORMALS Normals float
0 0 1 0 0 -1 0.281733 0 0.959493 
0.540641 0 0.841254 0.75575 0 0.654861 0.909632 0 0.415415 
0.989821 0 0.142315 0.989821 0 -0.142315 0.909632 0 -0.415415 
0.75575 0 -0.654861 0.540641 0 -0.841254 0.281732 0 -0.959493 
0.243988 0.140866 0.959493 0.468209 0.27032 0.841254 0.654498 0.377875 0.654861 
0.787764 0.454816 0.415415 0.857211 0.494911 0.142315 0.857211 0.494911 -0.142315 
0.787764 0.454816 -0.415415 0.654498 0.377875 -0.654861 0.468209 0.27032 -0.841254 
0.243987 0.140866 -0.959493 0.140866 0.243988 0.959493 0.27032 0.468209 0.841254 
0.377875 0.654498 0.654861 0.454816 0.787764 0.415415 0.494911 0.857211 0.142315 
0.494911 0.857211 -0.142315 0.454816 0.787764 -0.415415 0.377875 0.654498 -0.654861 
0.27032 0.468209 -0.841254 0.140866 0.243987 -0.959493 -1.23149e-08 0.281733 0.959493 
-2.36322e-08 0.540641 0.841254 -3.30349e-08 0.75575 0.654861 -3.97613e-08 0.909632 0.415415 
-4.32665e-08 0.989821 0.142315 -4.32665e-08 0.989821 -0.142315 -3.97613e-08 0.909632 -0.415415 
-3.30349e-08 0.75575 -0.654861 -2.36322e-08 0.540641 -0.841254 -1.23149e-08 0.281732 -0.959493 
-0.140866 0.243988 0.959493 -0.27032 0.468209 0.841254 -0.377875 0.654498 0.654861 
-0.454816 0.787764 0.415415 -0.494911 0.857211 0.142315 -0.494911 0.85721 -0.142315 
-0.454816 0.787764 -0.415415 -0.377875 0.654498 -0.654861 -0.27032 0.468209 -0.841254 
-0.140866 0.243987 -0.959493 -0.243988 0.140866 0.959493 -0.468209 0.27032 0.841254 
-0.654498 0.377875 0.654861 -0.787764 0.454816 0.415415 -0.857211 0.494911 0.142315 
-0.857211 0.494911 -0.142315 -0.787764 0.454816 -0.415415 -0.654498 0.377875 -0.654861 
-0.468209 0.27032 -0.841254 -0.243988 0.140866 -0.959493 -0.281733 -2.46298e-08 0.959493 
-0.540641 -4.72643e-08 0.841254 -0.75575 -6.60697e-08 0.654861 -0.909632 -7.95226e-08 0.415415 
-0.989821 -8.65329e-08 0.142315 -0.989821 -8.65329e-08 -0.142315 -0.909632 -7.95226e-08 -0.415415 
-0.75575 -6.60697e-08 -0.654861 -0.540641 -4.72643e-08 -0.841254 -0.281732 -2.46298e-08 -0.959493 
-0.243988 -0.140866 0.959493 -0.468209 -0.27032 0.841254 -0.654498 -0.377875 0.654861 
-0.787764 -0.454816 0.415415 -0.85721 -0.494911 0.142315 -0.85721 -0.494911 -0.142315 
-0.787764 -0.454816 -0.415415 -0.654498 -0.377875 -0.654861 -0.468209 -0.27032 -0.841254 
-0.243987 -0.140866 -0.959493 -0.140866 -0.243988 0.959493 -0.27032 -0.468209 0.841254 
-0.377875 -0.654498 0.654861 -0.454816 -0.787764 0.415415 -0.494911 -0.857211 0.142315 
-0.494911 -0.857211 -0.142315 -0.454816 -0.787764 -0.415415 -0.377875 -0.654498 -0.654861 
-0.27032 -0.468209 -0.841254 -0.140866 -0.243988 -0.959493 3.69448e-08 -0.281733 0.959493 
7.08965e-08 -0.540641 0.841254 9.91046e-08 -0.75575 0.654861 1.19284e-07 -0.909632 0.415415 
1.29799e-07 -0.989821 0.142315 1.29799e-07 -0.989821 -0.142315 1.19284e-07 -0.909632 -0.415415 
9.91046e-08 -0.75575 -0.654861 7.08965e-08 -0.540641 -0.841254 3.69448e-08 -0.281732 -0.959493 
0.140866 -0.243988 0.959493 0.27032 -0.468209 0.841254 0.377875 -0.654498 0.654861 
0.454816 -0.787764 0.415415 0.494911 -0.85721 0.142315 0.494911 -0.85721 -0.142315 
0.454816 -0.787764 -0.415415 0.377875 -0.654498 -0.654861 0.27032 -0.468209 -0.841254 
0.140866 -0.243987 -0.959493 0.243988 -0.140866 0.959493 0.468209 -0.27032 0.841254 
0.654498 -0.377875 0.654861 0.787764 -0.454816 0.415415 0.857211 -0.494911 0.142315 
0.857211 -0.494911 -0.142315 0.787764 -0.454816 -0.415415 0.654498 -0.377875 -0.654861 
0.468209 -0.27032 -0.841254 0.243988 -0.140866 -0.959493 
