# vtk DataFile Version 2.0
SG Distorted Ellipsoid: dims 16 10 33  center 0 0 0  noise yes
ASCII

DATASET STRUCTURED_GRID
DIMENSIONS 16 10 33
POINTS 5280 float
-0.125 -0.327238 -0.114592
0.919161 -0.214382 -0.102167
1.89807 0.00862221 0.00668757
2.98861 0.0796484 0.0828229
4.10793 0.0417966 0.0140236
4.88771 -0.145754 -0.120271
5.93809 0.115643 0.0939952
7.00789 0.111883 0.00385779
8.07761 0.0927633 0.0965786
9.01765 0.0334718 0.0788185
10.1212 0.0785994 0.0984765
11.0711 -0.208752 -0.0616723
11.88 0.048619 0.0447194
13.0452 -0.154943 -0.123443
14.0311 -0.0414528 0.0293875
15.0677 -0.0798144 -0.000819575
0.0023751 1.04309 0.0504256
0.966812 1.03709 -0.0322513
2.00631 1.00084 0.0106858
3.04199 1.06391 0.0826948
4.09048 0.869657 -0.111855
5.11668 0.77396 -0.104476
5.94258 0.971419 0.0440564
7.07754 1.02162 0.0172963
8.00305 1.12711 0.0596896
9.09292 1.22477 0.116176
9.95838 0.830484 -0.0807681
10.903 1.22564 0.077793
12.1137 0.941557 -0.0902712
13.0465 0.687682 -0.123977
13.8751 0.961576 0.021695
14.9687 0.86613 -0.00880868
0.0713358 1.89186 -0.053024
1.08834 2.1074 0.0571042
1.94158 2.05675 -0.00798895
2.92425 2.08771 0.0571099
4.11652 2.04921 -0.00848578
5.09224 2.06138 0.0865131
5.87952 2.18535 0.0425205
7.07499 1.9596 0.0276151
8.10207 2.00943 -0.0334838
9.11107 2.07198 -0.0137072
9.91576 1.9723 -0.00503653
10.8828 2.15622 0.0730653
11.9206 2.18244 0.0996897
12.9522 2.06119 -0.0279938
14.1076 2.03115 -0.0405704
15.0082 2.25859 0.117753
0.0670213 2.88225 -0.102284
1.08849 2.70652 -0.120057
1.97976 2.8953 -0.0304419
2.97968 2.85697 -0.0297883
3.94995 2.76486 -0.0652993
4.88428 2.9415 0.00635864
5.99863 3.2166 0.0684575
6.88975 2.92607 0.0119503
7.96048 3.02813 0.0220304
9.02129 3.03338 0.0797329
9.97579 2.88494 -0.0772098
11.0981 2.78995 -0.0730741
11.9039 3.13235 0.123161
13.0454 3.14078 0.0355538
13.9573 3.20229 0.0808707
15.0553 2.9771 -0.0353064
0.0275912 4.11789 0.0787385
1.06849 3.74247 -0.113814
2.02526 4.06105 0.0325536
2.92022 3.92364 -0.0118777
4.03575 4.02256 -0.0215862
5.02951 4.18615 0.0886091
5.92036 3.74141 -0.119168
6.8773 4.32965 0.122689
7.92623 4.21847 0.108913
9.01489 3.98482 -0.015218
9.98744 3.81953 -0.0747965
10.9289 3.75917 -0.0726097
12.0186 4.06642 -0.0210975
13.0385 4.00223 0.0216756
13.973 3.78871 -0.0536209
14.8979 4.17426 0.106484
0.105321 5.18602 0.0902865
0.878679 5.19889 0.0861421
1.90741 4.67482 -0.121732
2.97279 4.8772 -0.121236
4.10607 5.16828 0.0405172
5.03873 4.71428 -0.101756
5.87581 5.13467 0.0724391
7.0385 5.14329 0.0745972
8.05669 4.8302 -0.0611885
8.90959 4.98142 -0.00810333
9.90022 5.15938 0.0895988
10.8775 5.2855 0.116079
11.8799 4.91439 -0.10923
12.8845 4.8239 -0.0558336
13.9868 4.88322 -0.0872191
14.9968 5.05256 0.00856995
-0.0357994 6.0716 0.0554981
1.05618 5.77774 -0.0983548
2.10269 5.94495 -0.0652356
3.03784 5.7578 -0.118455
4.08731 5.68937 -0.11097
4.98151 5.99568 0.00042362
6.12013 6.20917 0.103164
7.0626 6.26157 0.117783
7.8823 5.72829 -0.120422
8.89517 5.74329 -0.096412
10.0641 5.94558 -0.0927991
11.0232 5.94945 0.0247945
11.8915 5.90033 -0.0218873
13.1121 5.75001 -0.120751
14.1184 6.2255 0.0904937
14.9763 5.88733 -0.11581
-0.0728802 7.195 0.121206
1.01609 7.00503 -0.0079443
1.99104 6.97785 -0.0494789
2.97931 6.7392 -0.0907885
4.04953 7.09376 0.0982692
5.05772 6.79208 -0.0896954
6.08102 7.02536 0.0225281
7.11941 7.17634 0.0994148
8.0562 6.92046 -0.0112412
8.94049 6.90173 -0.120767
10.1101 6.92285 -0.100532
11.0053 7.02668 0.0738505
12.0922 7.06693 0.0950679
12.8765 6.91342 -0.00684022
14.0361 6.93109 -0.100393
15.0177 7.07233 0.0398591
0.0982288 8.14255 0.0473126
1.07733 8.05152 0.0658788
2.06718 8.00222 -0.00473731
2.9786 7.90519 0.00667439
4.00191 7.89993 -0.0922268
4.87734 7.88982 -0.0997018
6.11632 7.72764 -0.0960199
7.09907 7.93697 -0.0703674
8.02137 8.10504 0.0961151
8.97402 8.07785 0.106804
9.98811 7.97352 -0.0674423
10.9972 8.17371 0.0882223
11.9296 7.90132 -0.115343
12.9771 7.71403 -0.0987094
14.0074 7.84794 -0.0963766
14.8856 8.09951 0.0561873
-0.0014423 8.75614 -0.116231
0.966626 9.10608 0.00123224
2.09044 8.89179 -0.121163
2.94749 9.03047 0.0541156
3.90039 8.95654 -0.0638344
4.98292 9.02931 0.003629
6.06716 9.18951 0.0758948
7.06013 9.14217 0.0795785
7.88982 9.17877 0.0904369
9.01279 8.91609 -0.0939856
10.0525 8.66857 -0.117051
10.9478 8.95461 -0.0499409
11.9835 8.77735 -0.0939273
12.9086 8.86414 -0.0209919
14.0801 8.78468 -0.0879176
14.8785 8.86534 -0.0367711
0.0654825 1.81693 1.04667
1.00667 1.55861 0.910911
1.96884 1.91647 1.05747
3.05799 1.69881 1.01417
4.04638 1.87372 1.0146
4.96118 1.96455 1.11557
6.10579 1.89993 1.04674
6.95904 1.81099 1.05198
8.04064 1.519 0.878435
8.97699 1.67596 0.929861
9.8972 1.5764 0.879795
10.9293 1.62791 0.968621
11.975 1.71482 1.00607
13.073 1.82836 1.05676
14.0493 1.62518 0.905761
15.0583 1.46807 0.882027
-0.0708776 2.53034 0.917521
1.00716 2.8825 1.10029
1.98593 2.49304 0.909248
3.00882 2.93949 1.08552
4.11744 2.65856 0.966928
5.05322 2.47935 0.906193
5.93957 3.0181 1.08437
7.04696 2.93657 1.07719
8.00615 2.85623 1.04598
8.99006 2.72371 0.944071
9.95423 2.49471 0.912101
10.9932 2.88299 1.11119
11.9576 2.55342 0.917837
13.0935 2.83744 0.994619
13.9292 2.65154 0.900676
14.9269 2.54369 0.916543
-0.0587451 3.66199 0.902125
0.939564 3.72713 0.9288
2.04127 3.91384 1.07313
2.96149 3.68019 0.937628
3.88399 3.79142 0.976271
4.9846 3.94293 1.07109
5.99508 3.7611 0.971925
6.88204 3.9085 1.1002
8.02809 3.95092 1.06446
9.02665 3.8053 0.976427
9.93441 3.60565 0.901311
10.9976 3.93042 1.05103
11.9012 3.60131 0.883274
12.9817 3.71635 0.943783
13.9589 3.58713 0.929598
15.0269 3.58924 0.892647
-0.00516511 4.58122 0.948229
1.03933 4.70327 0.898242
1.88791 4.82386 1.10838
2.89082 4.83319 1.01403
3.97804 4.86069 0.99009
5.04994 4.81777 1.00876
6.01901 4.81012 1.02524
6.96794 4.74488 0.93639
7.9781 4.68231 0.947516
9.08303 4.59451 0.940485
9.99833 4.4778 0.902385
10.9333 4.87332 1.05089
11.9397 4.67022 0.907047
12.9762 4.68592 0.915317
13.9858 4.59906 0.882274
15.0107 4.93657 1.10334
-0.0152974 5.99101 1.08334
1.0415 6.02811 1.10364
1.91279 5.72956 1.0437
2.90778 5.77479 0.953876
3.89264 5.65199 0.928453
5.04832 5.83952 1.07625
6.09468 5.85025 1.01932
7.09182 5.90564 1.03664
7.89943 5.91828 1.076
9.10757 5.56952 0.900653
10.1107 5.68547 0.908963
11.0854 5.82451 1.01322
12.1204 5.82765 1.06334
12.9275 5.88964 1.08858
13.8804 5.70856 1.00809
15.0319 5.87959 1.03193
0.072568 6.82639 1.0968
1.06836 6.83634 0.994934
2.06851 6.61188 0.947931
2.92448 6.6949 0.994135
3.95349 6.7712 1.02262
4.97891 6.65091 0.886734
5.88595 6.79327 0.983749
6.99758 6.96228 1.11459
7.98912 6.82194 0.971288
8.99078 6.56732 0.958144
10.0921 6.955 1.05069
10.9352 6.83697 1.09048
12.0489 6.82659 1.08869
12.9217 6.827 1.10456
13.9526 6.58726 0.947378
15.1246 6.84386 1.08725
-0.0181444 7.83636 1.05262
1.00008 7.63689 0.960178
1.87725 7.77996 0.966645
3.09423 7.74625 1.02714
4.06609 7.55276 0.923603
4.96841 7.66519 0.925475
5.98224 7.54836 0.889549
7.09251 7.71327 0.951539
7.90252 8.05284 1.10989
8.9775 7.77035 1.04978
9.94604 7.76173 1.0333
11.012 7.88466 1.06183
11.8922 7.96835 1.05681
12.8955 7.70238 0.9017
13.8977 7.68887 0.970043
15.0528 7.77447 0.947696
0.110498 8.46974 0.882131
0.971997 8.95989 1.05357
1.99034 8.85595 1.08149
3.02147 8.94146 1.05091
4.10492 8.91026 1.03285
4.96446 8.77415 1.07305
6.03146 8.85312 1.06243
6.94823 8.7985 1.00692
8.07449 8.69158 0.934473
8.92577 8.79982 1.01414
10.1002 8.85041 0.984509
10.9754 8.62392 0.994499
12.0115 8.63236 0.993788
13.0574 8.62782 0.964358
14.1155 8.4981 0.912804
14.9185 8.66745 0.923248
0.0622599 9.8554 1.11788
0.954541 9.81462 1.004
2.09939 9.70645 0.911578
3.04954 9.94529 1.06194
4.12321 9.95899 1.06971
5.04183 9.68805 0.937162
5.90973 9.72424 0.969885
6.91894 9.92344 1.0247
8.06413 9.92942 1.02923
8.89993 9.81251 1.09208
10.0142 9.65225 0.931394
11.0141 9.87139 1.02111
12.0589 9.88501 1.10459
12.9934 9.5252 0.916448
14.0586 10.0429 1.11867
14.8865 9.74901 1.05707
0.0096872 10.6756 0.892933
0.934379 10.78 0.952359
2.05723 10.7745 0.938794
2.99604 10.6676 1.00289
4.1246 10.7621 0.952765
4.98036 10.7052 0.956955
5.98941 10.9077 1.09213
7.01301 10.5965 0.888804
7.99234 10.6658 0.989687
8.89757 10.9697 1.09103
9.91926 10.7303 0.947212
10.963 10.6566 0.876352
11.9376 10.8601 1.09422
12.8977 10.7784 0.955476
14.0764 10.8027 0.994896
14.9402 10.7525 1.00095
0.114254 3.30198 1.89201
1.02782 3.30981 1.92837
1.8798 3.59284 2.10134
3.01871 3.30829 1.93981
3.95025 3.3537 1.88482
5.0865 3.42475 2.05614
5.87954 3.19381 1.89929
6.96592 3.52863 2.04277
7.95407 3.57862 2.07991
9.07279 3.53846 2.00518
10.0154 3.53147 2.06836
11.1043 3.32047 1.89916
12.0828 3.2208 1.87946
12.931 3.39225 1.93452
14.0358 3.51302 2.11819
14.8991 3.35287 2.0113
0.0418044 4.37147 2.00347
0.920024 4.38874 1.89023
2.1121 4.48916 2.01234
3.1067 4.26924 1.95636
3.89788 4.53211 2.09354
5.04263 4.38043 1.93385
6.07516 4.49162 2.01984
7.02536 4.6179 2.10174
8.09964 4.59596 2.0822
8.88042 4.34492 1.94592
10.0177 4.19985 1.8945
10.9259 4.54136 2.01891
12.0878 4.60003 2.0496
13.0226 4.33651 1.96229
14.0616 4.32795 1.87824
14.9897 4.35646 1.97471
-0.0761254 5.46679 1.98376
1.08615 5.27355 1.96263
2.10442 5.64993 2.12289
3.00511 5.6404 2.06477
4.00108 5.36097 1.99244
4.88065 5.14699 1.89457
6.01453 5.44287 1.99775
7.0218 5.51134 2.09718
7.89178 5.64178 2.05725
8.87864 5.62369 2.04969
10.0022 5.68534 2.09744
10.9293 5.54796 2.0567
12.01 5.51982 1.99705
12.9929 5.24949 1.95389
14.051 5.35795 1.96345
15.0747 5.34235 1.93499
-0.072029 6.36555 2.00825
1.06282 6.62366 2.07168
2.05691 6.33751 1.96135
2.94258 6.53397 1.9958
3.96055 6.57204 2.08948
4.98931 6.31669 1.93103
6.10578 6.5325 2.09826
7.11017 6.63406 2.10717
8.10806 6.45049 2.04483
8.98965 6.60695 2.09247
10.0668 6.18787 1.87693
10.8855 6.30251 1.98522
12.0032 6.40017 1.95121
12.9383 6.3547 1.8774
13.9305 6.5207 2.0549
14.9571 6.40916 1.90566
-0.0875976 7.58357 2.04504
1.10122 7.4476 1.98719
2.00367 7.24988 1.89317
3.09491 7.43628 2.04262
4.03048 7.39617 2.03268
4.87668 7.55375 2.08636
[...]
POINT_DATA 5280
SCALARS scalars double
LOOKUP_TABLE default
0.0010419106483459473
0.0547022207578023306
0.106346844832102466
0.160814650058746372
0.212553878625233977
0.269372147719065369
0.316186449527740554
0.368773151238759367
0.427517995039622012
0.481166098117828345
0.535571952660878536
0.582449425856272351
0.643121759891510103
0.697271571954091396
0.751690854231516603
0.809030973911285423
0.0921082287364535929
0.10187076958065977
0.13557953736688394
0.18040538679912288
0.224442679352230473
0.28725843750964003
0.33666181610341539
0.381762701799107484
0.426473524525730063
0.488159875163293067
0.541346285594938914
0.591444721573453847
0.648493324843351093
0.705900150610587973
0.749189502046636702
0.809749690562996727
0.188408921824561232
0.184639741745205199
0.20883823935281734
0.229589187696827596
0.275374732444796932
0.324106520533746334
0.371705813633493587
0.420531567970659326
0.462897158993614999
0.509680057907282547
0.563991016617027885
0.614877320753191348
0.661045149292859846
0.704592771343436453
0.764750033477212821
0.811621598305201974
0.264943989912668876
0.275791265226240423
0.291243521101932246
0.305923812152318619
0.343756698469308841
0.377167049345380256
0.421013433382085023
0.456343841099522418
0.499083963846963796
0.553717605213958075
0.601979529050145401
0.64156350131647244
0.699842849572499759
0.737600127564067454
0.802763084394493065
0.834144921408009554
0.356713433000776514
0.357170503147462848
0.375499230556908203
0.385847253873822349
0.411716355166663717
0.444902611043718144
0.474380056053902988
0.515115246507856672
0.556831577678747913
0.602747073914888021
0.643302417040240382
0.684888123025804707
0.723574550603016231
0.778845700863139756
0.83233659394531645
0.876573623784480893
0.453717251088884166
0.443048219757455508
0.459341557680794155
0.475812258093746276
0.500112285553089508
0.51316411058335254
0.552984990453256109
0.583488915551868992
0.608264995688194254
0.64933760994050127
0.690915102834786077
0.738132594996535496
0.780792588833110646
0.822105446778385263
0.867430737775272465
0.91801981386316811
0.530955444176991809
0.533170969704562236
0.55189407439397864
0.554240494270954787
0.566819887414893642
0.599525553372655118
0.624324695589885015
0.65904217698153611
0.68113457222777174
0.716454554782072206
0.748007459038508404
0.794702381116905165
0.835099946350199129
0.871158346840095854
0.91197871832804267
0.962550498605328375
0.623428012265099474
0.622428121990399763
0.632754262291712166
0.645352100237405302
0.655697358714209755
0.67756622766955521
0.706807809889429151
0.715115102373761413
0.753792237562524781
0.787517064207760908
0.818099202217555499
0.853234310917819649
0.895255523014401589
0.929882955461933558
0.97497204572498708
1.01426126849810605
0.706134955353207139
0.720763815011786213
0.716713097111423503
0.718724535041385226
0.741093025074845424
0.751427851729929319
0.784415719657892474
0.795583839417950633
0.825061698122481535
0.866340691176993749
0.885031316810184099
0.917618031280807878
0.955212097943834992
0.987302858938573724
1.03050785726971106
1.07232218256435052
0.809076273441314719
0.803146830501493048
0.813651746855887481
0.814111080339060766
0.82761323563540401
0.845571503744435349
0.866481947087230031
0.88468172214739349
0.914107045332590795
0.93705022502354518
0.962915431619244422
0.986973100807782333
1.02911303192373449
1.05259634563611781
1.10280651167925559
1.13099966316523037
0.0183630776405334477
0.0629729039485641406
0.112789003437921947
0.160125992582950322
0.210670831964321931
0.26945442291938948
0.323799099684008718
0.371940201143288629
0.436742831340898308
0.484440600233626173
0.528381079391110897
0.582773724825321526
0.641438834511155798
0.691556985568200222
0.752418712027350667
0.79917431120757898
0.0852218687208336489
0.112388564940194641
0.138707620443924401
0.189318580731863001
0.229791764724572828
0.292124699763444573
0.326582745661336493
0.384750813270172021
0.438026754332203283
0.496267264895098648
0.536491202951567603
0.591606767707400838
0.64914951227414297
0.695025658654608081
0.757258177695255719
0.804734390430938529
0.182166795839599022
0.188705379065136153
0.208579247004169105
0.242949705139021283
0.27784239017546819
0.323680564591142805
0.363883563025282408
0.418305053844885477
0.46175328899392637
0.512601609136623226
0.561457621937333839
0.609866257705649284
0.669031930019028054
0.713551574430451585
0.765154019248473372
0.821443140318586118
0.27046571823799298
0.264171241972377624
0.287912412242659066
0.308828313504796947
0.33835891085035813
0.376438995594694625
0.42043179834802813
0.458886657351875948
0.505228965475283731
0.546441574769039429
0.596758138118851589
0.651371364445876289
0.705153653811608438
0.751386775990908196
0.795497828932311246
0.848799477048120865
0.354287422625282122
0.36511566375139537
0.36926675339601911
0.393392920393884848
0.423501431873570477
0.448893144606206773
0.486045469677525377
0.517426965461922017
0.550261997017488902
0.600268895611871689
0.635388271987156306
0.689510380610937612
0.741205240352689754
0.772456496121076919
0.837398827209805297
0.876058316294549777
0.453459737776372829
0.440666569117075801
0.460295142637975496
0.463062102053926727
0.494121616448960632
0.51689839889268907
0.54691162682733574
0.575576734943058055
0.618983804515751523
0.661657795781734004
0.6903073474014636
0.742567680153538023
0.785741274716047711
0.835538401006312492
0.859818498713078361
0.917332775485788732
0.53792472715722417
0.54551820892308478
0.550082465970337831
0.556233933176227158
0.583083263837520627
0.588024865566361354
0.620527003318011583
0.655915451464632371
0.68414750138788516
0.7135763479662105
0.749707676426273784
0.793950797529723307
0.827366449479114641
0.884412865182614416
0.916691172645012986
0.966690770952342793
0.612657458873035576
0.629536595353485939
0.643206965290062938
0.642114569645461764
0.664235626223174114
0.685846908428925039
0.69529811959331711
0.721782817777990027
0.759105621253905238
0.794444773512482882
0.827110197355939603
0.847297771783424802
0.899840779052728079
0.932959429698673959
0.977009211987574844
1.01822861993517866
0.702645439767412117
0.712653929165500633
0.719449192774001101
0.720273138897211673
0.736920930067601287
0.759502176974345633
0.785203936733590679
0.802053768707827741
0.837681482484532225
0.863078755398468123
0.891356320556997317
0.921498821495256637
0.952117664628229443
0.995202296478228221
1.02487033210532275
1.06611690713985707
0.797881720112608273
0.804832272006830274
0.803684238161646691
0.805457774906170099
0.825741439660390264
0.833448715634546589
0.869575880235773035
0.890960311616458833
0.909038440954376692
0.938602774456345879
0.956557657091258839
0.9956736728820198
1.0283407428999225
1.06032008440708569
1.09449524113464558
1.13462240065956932
0.0541217446327209514
0.0783161474903816823
0.123024929963626073
0.16662268643552347
0.22008663333687295
0.275282585388435475
0.326781790826148444
0.370205849806467757
0.430861276717797947
0.487448541332749508
0.530795096811526812
0.592597492745516763
0.639167372704046444
0.690179296345967086
0.752419485290575007
0.803535066239730367
0.107973116891305357
0.106828328926328722
0.14953606604623193
0.189976865259129268
0.236228692464152318
0.282621687840816815
0.341804616242455228
0.38779302453246095
0.4394433395477082
0.499086627273502448
0.551225246377846312
0.591256373534155055
0.649207951655004556
0.693480794965019798
0.749593933782444544
0.803931753964288953
0.182761201793321365
0.189473067654503724
0.214698048821887089
0.242312079065114844
0.280966836098877848
0.333621736604544583
0.3711923577489738
0.421017933758708218
0.465392204738299731
0.515176616932966458
0.563469634874636971
0.614309295274836686
0.67139482090870195
0.7068192129342038
0.764808287669341835
0.815463589009786549
0.271733333832038959
0.273253588000873404
0.295166541593616716
0.317157654701384573
0.343211821134101813
0.380793100797374162
0.419778712079796112
0.46622221809793063
0.501048314455633581
0.553737159812930257
0.596019192235117901
0.645584032401218311
0.699801355214375365
0.739450618176590857
0.792456993356619677
0.847631553762429268
0.352041681030852094
0.353222135674183979
0.368142223946770097
0.385967644682589262
0.415221807969367251
0.452719695724287163
0.47744874718829039
0.519383506197675593
0.553251268140090513
0.612271320930835916
0.641884098905033396
0.688479104136454079
0.738125361886593834
0.785305468748802804
0.816653096943768753
0.874693407091459374
0.448038242019453303
0.448111082404580918
0.466046535121587835
0.475066123151112407
0.487830541149576635
0.510271152270649897
0.550412840812177673
0.587175345426337314
0.619151651726221663
0.648368465080072953
0.689035314161999923
0.731287730004452019
0.789928137968773592
0.823166539369391548
0.871361993797478473
0.920765282090929338
0.539498900827640071
0.53746458926112739
0.547853246636253011
0.557783382644665982
0.578868607196347251
0.596006622807627617
0.62116885454484172
0.652183793863844841
0.691510871989870268
0.71000484345828252
0.760672445287137067
0.792423633829031804
0.838819488782085343
0.86681836881906793
0.915521382082749691
0.96491781465171822
0.616326042200703084
0.621080566580362148
0.638084483018504289
0.643284786414983767
0.667159168374688361
0.673486140672450162
0.708117197088377059
0.722747569713262927
0.748683327657606035
0.790603894392111206
0.830320099172140003
0.860528479284821457
0.898562765923940132
0.925143451260449057
0.968126177184039372
1.01124949701535027
0.708470434602218369
0.713856108051418192
0.721490137069288551
0.736114951567807707
0.742026508253067263
0.756835390991634771
0.785229708948017469
0.802738063097120924
0.834491226536295039
0.858981719471709537
0.891820977685161442
0.914494205395298132
0.953113237691079807
0.99216783420259369
1.02827582642784177
1.06893248847093414
0.800904584519759655
0.805733409722646066
0.802927328705407506
0.816006791875367843
0.833060812742285828
0.850503448598855072
0.871831619123013324
0.881383364905484523
0.908095759171368866
0.939261899752383389
0.95928665391563428
0.998441049697586402
1.02661537275557957
1.06207112980528584
1.09019208647094845
1.13223459379174152
0.0783179116249084623
0.0968170511412216744
0.131042285352455989
0.174943105881031791
0.225637308846754731
0.276769708297205541
0.325083237845198936
0.368537418433628527
0.434851269648802552
0.480174344440440326
0.532802605955991826
0.591912141163108529
0.641300744908773979
0.698133281196118505
0.75668898654068284
0.80710983076225784
0.11882893202111787
0.119107185973656216
0.16253936293848234
0.197129222587534292
0.23362265045000935
0.288674714446947978
0.347281407792636221
0.395859197963417508
0.445702559033917534
0.496603143744998532
0.545537471079168723
0.600385235569573572
0.648662199345461321
0.701260461831356485
0.751192669817303482
0.807338434775873637
0.194920255987926588
0.206701242220059311
0.232016989051746475
0.252557642393972936
0.284670719048369936
0.328878981041333618
0.368597579573790801
0.418646010539306446
0.468796489242740866
0.51739220494992777
0.565017306964520905
0.623198896844137207
0.673127887010989245
0.71439093671660836
0.773708981945764429
0.813679772775537713
0.283659909865809079
0.287956144921811708
0.302935725713533333
0.325856104480923281
0.353273005025080744
0.385197640816095033
0.429030495113206234
0.468332718376670343
0.511528461767485676
0.560593905762178379
0.594754508346857058
0.654195010368295082
0.69878073068952673
0.74678740208528871
0.788637076934363357
0.85063823941942307
0.369938505102228699
0.361453424476527063
0.382092412157781447
0.393542659979894183
0.431853482613451467
0.451362707086093717
0.488574152145719032
0.530972263803884514
0.565789284449685348
0.603746209893169294
0.652783298576591675
0.686788902357218789
0.734330474862172067
0.777388931465881283
0.825096316509156824
0.872476292284754873
0.447433206506259729
0.455362610935666767
0.466577730746806141
0.481807987702643992
0.496224667115074847
0.52326996318568253
0.553478095945063919
0.5832758816750232
0.623761112459094158
0.654463406637978862
0.697093800429453903
0.734288373571139186
0.783349491310851964
0.819986736492276047
0.877058560303775048
0.913315053094962304
0.530666566222105063
0.543998878815261322
0.550195661965018012
0.553878812480747773
0.58416677311978793
0.598462642044366833
0.621243031043940519
0.6628409031070569
0.683219221881658956
0.720735325858653297
0.755897702456029719
0.795117389281775444
0.839456044542212787
0.878372247429327957
0.923467083945299305
0.962229662027517807
0.624426552787868294
0.6270529043147679
0.63237991017037154
0.648856196412944009
0.659461875047245405
0.68047831568104411
0.700259959372594776
0.723004798074668331
0.757521296973725278
0.790990832113418585
0.832725736062891242
0.852923640759187141
0.901419026477710328
0.936432857684570408
0.978321036290282331
1.01832221885858343
0.703605096472489144
0.714365548617765578
0.72283124464790427
0.726245473493450699
0.741405500320254207
0.758423513373463476
0.784489357597451975
0.812633354146767628
0.830487869022255465
0.859046817556160414
0.89142280014171893
0.921601951651422002
0.963196819927682246
0.993197686284241543
1.03072274382628315
1.07076749896568413
0.803141458417287124
0.810846857890419881
0.811377698727335006
0.815754916827472143
0.839568278861572259
0.84673279050584882
0.868246433009410401
0.885948342535226918
0.91127665489798404
0.939025447830980187
0.971100454416433778
0.995273439421164641
1.01893529406688277
1.05784800640096965
1.0998957115362118
1.13383503316317347
0.105951578617095948
0.11613532622655233
0.155723135797261186
0.184599253168628435
0.232081923888281194
0.283782461365066407
0.328622834781294726
0.381882762791129204
0.433677254462899953
0.487592730471828883
0.539385015499618703
0.595703610497603897
0.642828067488325994
0.695410346445690997
0.755220313866933224
0.804892979209890336
0.131299503136229095
0.148051111790815981
0.177048308319515679
0.205421438314367322
0.251778066734307415
0.300168313898924122
0.337940495958647169
0.403901134790745242
0.441770971705995941
0.498792745140758553
0.549410016166452686
0.60397975532821746
0.652501673937568527
0.703356270139174566
0.762047626224354069
0.804948908752865289
0.203263698134264759
0.210047620658711465
0.225276795544155251
0.258507782210413373
0.293834664803492907
0.334372038844322372
0.376044083053506339
0.426150369151974462
0.476937935217458697
0.524227410606522448
0.57608470477938134
0.626522706300357668
0.669221374570939553
0.721258924099310805
0.781849741443919721
0.816086454270580686
0.286112116058669874
0.288152514131384985
0.301111133769029926
0.334836358229319231
0.353475320977174046
0.389601951871959118
0.423149045673609281
0.465189334737741211
0.516647367524978418
0.55699474092209722
0.597950682926186583
0.652193633737991663
0.697083186564099178
0.748390120202349296
0.804032302450409575
0.842814722688991491
0.367917992938296801
0.379751489368409856
0.386064319875505269
0.401071902245257961
0.433357849104803239
0.459790577623579222
0.494396151290477481
0.527172710824088786
0.567859534986909775
0.604680228712524692
0.648075036681836969
0.689430907367821422
0.734813263833976715
0.798700801312793418
0.837723388021414328
0.874402667111658927
0.451613030168745377
0.467390200575039605
0.476859589520014282
0.488261211176371002
0.509280605575604284
0.530874620742284753
0.551090188655210755
0.583863836406243841
0.612800011843914749
0.659932417103847535
0.704474245815683631
0.741562408817484808
0.795999251782764095
0.820993830902777555
0.881903796739148982
0.919978315643178557
0.541409132015732042
0.55010275486266047
0.557092157443244584
0.569503834893189786
0.583962803398262564
0.605379519748696304
0.625737693188016864
0.662876429639549403
0.694263567557357741
0.720760030232358684
0.760376749442496114
0.797026286672821493
0.839271128745621264
0.884070185678562437
0.930524534824859084
0.968623055617014561
0.631947165233281982
0.632441909918370904
0.641081915124404156
0.65381803859986809
0.666133707354887528
0.681814211068749843
0.701718041332969222
0.742546991661384936
0.755612836219354156
0.790599655376260535
0.824321870682934166
0.864478641149991733
0.893405497294494921
0.936824070603934689
0.977590635110417994
1.01444400092337639
0.723041451413358183
0.724174342765232959
0.72846479966486577
0.735657292427913556
0.745050886854569216
0.764259981087929141
0.787976813775426388
0.816734081574842841
0.835666353727888556
0.868269478672101136
0.895157673671322152
0.927818368496257651
0.957365105212609757
0.993288895063855093
1.03220843914934912
1.07161957220149584
0.799586716239919615
0.810167027822947139
0.809029867791655199
0.824696842154345799
0.84025875756551538
0.857131930025417321
0.863815808602516944
0.88965104566469011
0.908577249111394925
0.942889855776239183
0.966995801130930643
0.991167874488488199
1.03029781049985036
1.06764826876898278
1.09360390096234705
1.13442171289555893
0.122022745609283445
0.140156353473047779
0.171138576419137878
0.205079030687153385
0.254138243808683106
0.286155251172874436
0.342296983464715709
0.395173402457454359
0.442291858221816991
0.494669677451437029
0.540517120689975927
0.59895273540791405
0.653734442161480689
0.706998689865420249
0.753003963650852981
0.796876749032305209
0.169301565833819112
0.162703798320647519
0.177408738361655993
0.219460075286455697
0.265460428102327339
0.311957493906993399
0.348688002055528246
0.406855328723113252
0.447603933497383533
0.505622996713561479
0.542818646628218215
0.607021385136867986
0.665711884802538623
0.714756695065302816
0.762149493242738063
0.806755552004751908
0.217373978941817064
0.224129985280774352
0.249176489591520167
0.269946349538530028
0.303309140073929839
0.349997732302548492
0.383459622346579487
0.428479319938587677
0.47477869313754556
0.525653890385243794
0.571650158983752599
0.624263843278416553
0.679661910794104429
0.727412420522759007
0.774221800152349648
0.832676401763780327
0.288924358991477948
0.288685049185336495
0.31955552648638369
0.333986733131553082
0.363731623323885256
0.393939416750499705
0.43208371707307841
0.481753414688941228
0.521375266821818117
0.562916479596608399
0.610589429642280246
0.659565299629623292
0.699696920608828599
0.754249125126888464
0.798634700162700661
0.849154355035513286
0.380901962536644434
0.373040466525736247
0.384988393734270407
0.413494568136003326
0.434683613056814022
0.467961045340618498
0.494880389638064688
0.53295707864829156
0.574439580613439471
0.60505518457391394
0.6577444814397988
0.696392945268676677
0.749563662376245721
0.789232691095058003
0.844527270583401601
0.875466577485133457
0.45553545101078452
0.469152428534668986
0.476853046760258414
0.48439019357767743
0.511966815866501057
0.538057774881026907
0.563225757789438286
0.593919445130039469
0.631251713130239756
0.659761516183546171
0.706164893219988099
0.748099923602665418
0.787869032190028795
0.836180694682527204
0.875891616326215816
0.920749846026868823
0.56170139345608916
0.555751369091714076
0.548518905223118969
0.569636174841201215
0.583236330647649792
0.606738969589790011
0.634636655098120839
0.662276195755306385
0.694631578518348114
0.725068279107411784
0.759100359705029204
0.798142356260112651
0.843257850894617023
0.878906214975461952
0.926688551483804135
0.974093480627098662
0.633871712798214637
0.637231587230818741
0.64417499587216176
0.653155580022015125
0.662160907155918133
0.692481172877228102
0.712479950704527631
0.736363817845307467
0.762948726356883378
0.789422184011405959
0.830101271301133758
0.865187100862938374
0.904516555528416144
0.941312133681484031
0.980930601042914074
1.01961098002062545
0.721768538035174489
0.713271618550492481
0.728380191347481887
0.744340210291643212
0.747953004255603293
0.764335752185090422
0.795683709467114197
0.815032572052183824
0.845019696791412089
0.871643383643089686
0.898019905635373039
0.928138343674950073
0.965613511764996768
0.99743735869930783
1.03772924147421319
1.0864854220150606
0.805232595437334497
0.803686207368201178
0.820876271715832551
0.817825240008847598
0.83512523181571563
0.846694218621939054
0.873533505812533861
0.892485665552250174
0.919992172220462812
0.940850188500029772
0.976968179266014647
0.991120239407345727