# vtk DataFile Version 2.0
Ellipsoid: dims 16 10 33  center 7.5 4.5 16  noise yes
ASCII

DATASET STRUCTURED_POINTS
DIMENSIONS 16 10 33
ORIGIN 1 1 1
SPACING 1 1 1
POINT_DATA 5280
SCALARS scalars double
LOOKUP_TABLE default
0.700460744418084369
0.663994707121642103
0.634100325409544419
0.613516148755422597
0.589593204299119544
0.588019814475009395
0.561540640803355973
0.568674209781821483
0.567435329624350837
0.564069117518443797
0.581800999625155857
0.594602683821824685
0.605969742963186286
0.64270408898986664
0.663694929137022993
0.693693948306023822
0.647754447093483399
0.61619714052118868
0.591799150145155939
0.556130574507791686
0.535391772850739356
0.524130919669709261
0.508949774095544982
0.507203544743384249
0.510705875523413511
0.504451883623132868
0.525368159507355825
0.54608972893594443
0.55875506715305534
0.583806234037978156
0.613783104724069495
0.647105815043922838
0.604685791730186217
0.571962258991717154
0.541939100226876747
0.515014690325677815
0.496242358838486164
0.474041950099184151
0.468890563584504871
0.45699921268418392
0.473992754401713234
0.473616305924592751
0.476485244624330617
0.493878791486191238
0.516560081408441452
0.53859950443219895
0.581183965382097933
0.611405323743125728
0.578093609793612906
0.548394731030711902
0.516906235127165492
0.487838277258696884
0.455082209802826598
0.455919129043795779
0.434697336044079785
0.421484640364566066
0.420719393019595378
0.424896711196667665
0.433318478256442263
0.460907119013031663
0.487054566778960529
0.504469959644987753
0.543002179608592761
0.583431305869052341
0.569560069734239782
0.532359909629106176
0.498883128055171654
0.467123621749598206
0.449774058476484162
0.417933952623992633
0.409779500708671141
0.409199513703077167
0.399425477295606457
0.41670250867375902
0.424039356524139099
0.440037444249189225
0.472760809707361895
0.498600172885493909
0.531103100394487049
0.564765929872179218
0.575018748933458501
0.534981674765824922
0.499214854129390373
0.474462183761316936
0.442166331425702941
0.417176811510711398
0.416419820532889895
0.402534169464795866
0.407501343994825183
0.401316461310477768
0.420738270098357847
0.438118193760907992
0.475270270156580632
0.502335219272212696
0.531610607718705719
0.57134277313389803
0.57946964739126916
0.541260026440868236
0.512901413349821755
0.484853963293853107
0.467259028650482855
0.458647705703952024
0.424618295516736022
0.416488607649722342
0.414946993117251639
0.428738569106823897
0.433415218979098515
0.46514936754818792
0.484582948126616786
0.510675098805144057
0.5395247015812491
0.573161835654208529
0.601979187726280007
0.575071084675310873
0.548597730597970457
0.516707500384271601
0.503203723584579876
0.475256244532777872
0.457092162705598659
0.463672491492777672
0.45937208789780698
0.471686069108186501
0.474979812495424369
0.494282539044784974
0.524107383654535242
0.547274736365792713
0.573721502003191719
0.614289540051719429
0.645965201488014618
0.609549496478219877
0.57912123266468718
0.562500508589822923
0.537137683495270579
0.528830931876740573
0.510432012865076223
0.505546135075415459
0.512236942417944707
0.506749552080164145
0.527260554526887026
0.542654975517975591
0.55632129029758659
0.599951558745009383
0.612335655993600736
0.638143717875954031
0.684588857211053115
0.652590593352110893
0.642085860077513226
0.614563206860891276
0.596123660842088343
0.581205544455478118
0.571303519221324718
0.568686111637290326
0.565118129917319578
0.575594691248912604
0.582091221793124558
0.592329429427293386
0.613554887006155014
0.636319506470335416
0.653262495054991787
0.702885537661492532
0.677092686407632316
0.645368414578329164
0.630700797169501337
0.593350989589311206
0.583196839425476732
0.563455653111113675
0.554399806480516899
0.547069926359963654
0.55699315557749296
0.542914611320604812
0.565547385136260128
0.576341084573181894
0.601263568172074825
0.62458776387482362
0.652676058468710019
0.682757530920571787
0.635672713157111935
0.591194019069350318
0.574346328971186426
0.54422974270687674
0.524583103416762619
0.497499072916866125
0.497124399723398336
0.478351730025050215
0.500516170180079545
0.491112837375986211
0.499546859629512618
0.520915825126967769
0.539813219727140359
0.569136615989008665
0.588887405147231258
0.629955721732551321
0.583977821307144374
0.565658678928234404
0.525490282567133593
0.501407948546381599
0.481016805820342508
0.465301286738751263
0.437308055959106101
0.435808880660433606
0.423964531752962892
0.443020126424193972
0.461055128138897763
0.476788004093047557
0.493412324004145253
0.527433889897455876
0.552487807193615232
0.593128993945083782
0.558968901554717124
0.53101976343432078
0.486706388253624389
0.46778053502663558
0.445697225246412032
0.4203228795123643
0.403603358106259746
0.398195692444794969
0.396092554474824277
0.412289061383847633
0.423532775600010791
0.442156900081617066
0.459955808921899301
0.487053315896446626
0.525734633887201652
0.569238238255156626
0.557356237295775103
0.509312445474439546
0.485399569894746752
0.436154973413617197
0.421841857355605754
0.401158767239800318
0.389899550161097508
0.389563847803071073
0.375951920770600356
0.382808886251185421
0.405574718014946822
0.425240008753310805
0.447251145746380863
0.470399817850069069
0.515663058114820383
0.544993738058714539
0.545158666494993782
0.511777960611158211
0.4830750459689655
0.458337285425335972
0.41657788030482451
0.405245376126519119
0.393883619985316236
0.382742253564789803
0.371371537469819102
0.387266588887904162
0.404617381589165603
0.423164508265029549
0.442104356195599624
0.473978614236787776
0.508514315439039133
0.551414331320433271
0.567376189152373422
0.523416308844477096
0.499732816476280595
0.464327471061791841
0.44490529409406826
0.417582706172520524
0.400555567578915972
0.397730909729951232
0.392351404572480522
0.405662169294003838
0.425660766322667028
0.440930398616773356
0.4745154402695555
0.49778970505660286
0.519288405859857916
0.568500018040312805
0.587989967303238048
0.562986254611828163
0.523867662938227396
0.497319508604975313
0.474696920566436253
0.445734331172345011
0.442228405080199838
0.431700909469027339
0.431062615249056647
0.45030863960778772
0.456268446009991502
0.476410501651641283
0.502678376250238923
0.525327871831049564
0.561744093814709022
0.595231960253677528
0.630289717551643203
0.603452625026381639
0.568074661490717614
0.539505926788907963
0.532735264061293901
0.506105335123897437
0.490012888492929566
0.485600570357081429
0.488453487074610726
0.487316755833017479
0.507845504649043877
0.516387321708998925
0.548785692871671671
0.569188190696039875
0.59884620641676245
0.634899874564582634
0.677314549200601079
0.647558050808797914
0.619780081837470131
0.597991797694779947
0.580821045968445526
0.560235133091582349
0.550256434898485636
0.550675578215432449
0.550769705870461701
0.558033935051073571
0.556931357304228825
0.567661580178650649
0.594942462215043655
0.616796931355292344
0.658337374386678831
0.680542870276040546
0.662801990157412035
0.635821280347668272
0.601378543857130854
0.587257911633242147
0.55086503585179647
0.5479477904964144
0.54130819901937044
0.534510786758763512
0.530596125351292858
0.530809331984458344
0.558350069396560844
0.56214404662450157
0.58062947459100589
0.61554871368745312
0.630736346113049184
0.660898475295351506
0.612669279805363787
0.580262815314730895
0.555952526599458263
0.531369041214349802
0.502791588630755792
0.489860766726357477
0.464272878889813945
0.468462507303008591
0.464289056833037894
0.471747644667401822
0.502719100314003908
0.509759075965960817
0.534911502609613398
0.54852601674228052
0.578063623267611737
0.621883929005803249
0.57733961678500767
0.533406430519802077
0.513063053878120234
0.481782021141359706
0.454723209454179988
0.435442089116643394
0.419564407564683328
0.413432778448364791
0.422750538915894092
0.426262806154771245
0.439506477391789885
0.453629173351885073
0.484245380974123396
0.510289864333442478
0.532842980660182874
0.578922430047947079
0.548900492065017898
0.502669195517380873
0.47548158438259136
0.436630341211657891
0.415137717632114545
0.393465432793336178
0.37617344677609077
0.373526923509886422
0.37508589491491573
0.383345478178678645
0.392485875755982649
0.417232158092319616
0.446764599481921543
0.473611715150413615
0.507491487845261768
0.544101469390457337
0.534198489905427398
0.505269807877839261
0.45585739958441035
0.429040311322420709
0.407655829966027228
0.368013936895140226
0.3585484681553463
0.353396762269057363
0.350946944611586653
0.362444132370434158
0.38574043454528667
0.394188746988732353
0.425595468030184387
0.456140850664732589
0.494227842393220151
0.529267631293366847
0.539344669104646068
0.497579073014558004
0.455876625658629075
0.436066373334139445
0.404735602915246018
0.381944295781858956
0.354876287979565053
0.356418918030776133
0.348710311310805432
0.356745585007152921
0.37712684811950542
0.40195699650045108
0.432792428479403135
0.454563397051451323
0.499422849717438888
0.53553197455508561
0.549339029662674116
0.50459699092753707
0.475539262605247592
0.442708527246814143
0.421377036479770817
0.395256509453492444
0.395156906248746997
0.377593390795042672
0.368375995012571955
0.391249836088834901
0.391645116478638922
0.420536906627475893
0.443355480829577819
0.478879354310569882
0.508076509817917965
0.547894499175613614
0.568070512781101433
0.534952756203395774
0.508159184249213913
0.476912331199953465
0.45512207420027373
0.445093883550237157
0.426203506685777112
0.423543557256958525
0.426567372411987833
0.41277006933836502
0.441438545262883619
0.442470420910478779
0.475230183220217151
0.50740259626703621
0.543818017281276656
0.580244146356540869
0.613692534199895001
0.581427671271762203
0.561087109118989513
0.525551475296381021
0.507349999275287011
0.492373278933388725
0.47856761765934519
0.469617597635039852
0.468632623727569142
0.476857813124433094
0.487423995333535198
0.504136822547992081
0.530290225754144751
0.557483841449311845
0.579428674537142974
0.615734331837834548
0.659117602950380799
0.626604666578137071
0.601551578525099662
0.575492469738710932
0.559582992394765277
0.543321020476883132
0.538258577437339181
0.536710188614232364
0.525466425644261603
0.54452240571492716
0.550827791564529656
0.567058292229970284
0.575402118633974613
0.601351631167921896
0.627491412031017881
0.667277564650820221
0.647628339902090455
0.620397078845108529
0.586181302782414426
0.570288277417671519
0.552652239185762895
0.531553055393963247
0.527324245767901822
0.5210560133315979
0.513303461299127184
0.517811706857989718
0.530265881169109776
0.542066015583467897
0.574118824750435186
0.595634675737736763
0.627919566485489411
0.648156465665029935
0.608790590246910179
0.568454975446402777
0.531673861993039343
0.507608567202326499
0.485080306609332657
0.476280953490874348
0.455461090515933364
0.447602076946926442
0.45209073585195575
0.451422184418521222
0.47994983395352081
0.48768255956953771
0.509110012972590176
0.532030555260861626
0.571363205274283636
0.597936880072349686
0.564823637742665419
0.535263497612245009
0.489720023021715301
0.456202515823045329
0.432428005717944763
0.41952951828076307
0.410722392451667973
0.389931827773884132
0.385411697616413473
0.403407119166755868
0.411904453430909534
0.434468735240649828
0.464124860030808994
0.492230036602037568
0.522307469627625864
0.563838091630604832
0.527945210087566785
0.493405315614116102
0.458297660175982113
0.42445374761054927
0.393465495093169637
0.37040014251782144
0.352450946442819879
0.352514745883835079
0.352735826663864382
0.363109305970407803
0.375231132355467956
0.396194701178374742
0.427546990255812942
0.45921099406880439
0.493335029816996951
0.543077828038006194
0.515145873738691584
0.475296172646555437
0.440323072022433815
0.40584338066419412
0.372270187152450804
0.358537547642389209
0.340745932925058059
0.335705268671563584
0.329417560389092923
0.340627925265145903
0.349574592167535669
0.381937869800155871
0.417857521746957783
0.435889726227756069
0.481861629036936301
0.507646655751631037
0.527635802937910348
0.47244918778327416
0.437686048096652569
0.407713192675912828
0.376693710101669577
0.357311656529107957
0.344417502749276794
0.33357117443328238
0.324524677088311675
0.339773127901864702
0.348304755741754402
0.384549869311874626
0.407398232196176546
0.434156022614474835
0.474400386361155058
0.52375474901334973
0.535414997685223049
0.499864361024272341
0.450386588398638377
0.435063183645705509
0.396736063940825889
0.381722469177977697
0.363465655915476138
0.356112463168991311
0.358057176761520601
0.350544913880564024
0.371421623078124208
0.399030699713531001
0.431169121603469208
0.454009883228960631
0.490951301789653183
0.526402107823162435
0.557273283738759173
0.531028573295838746
0.491534903392809031
0.460551575881639086
0.4395456204640385
0.418400062714356813
0.399080241572761729
0.384261356582477898
0.39594728111250721
0.39913313235034964
0.410555271302003311
0.432528732799243587
0.466828412276902749
0.493561518535631294
0.520001256248719623
0.559378557939198551
0.596220094641441434
0.56852608140343408
0.538214694512570535
0.505697251284357718
0.486044967253863924
0.467699715697905583
0.466162079285464603
0.452663417278957703
0.447840552746486986
0.450438602875552485
0.471060978973052047
0.485966556151568974
0.50589498611712147
0.539894629967892836
0.559134506543814913
0.600693532904380878
0.655037702695059232
0.614774215075577279
0.602448087450383252
0.572116585523140264
0.542463945728731578
0.535520035374432046
0.525368374185870568
0.516849165187066584
0.514267511592095938
0.520118530588458472
0.538837353337078495
0.545574011188936669
0.564985218793403909
0.600031343218205504
0.620768382403458108
0.663129305020498716
0.641612513102568394
0.609141230924159172
0.580159106181796558
0.552496454349165722
0.528616613092849685
0.524332634013670251
0.512511215535564557
0.501769930891374227
0.505179488233903573
0.513985004750652452
0.521356006663816762
0.531165155115554732
0.551785986056929412
0.57989568226211885
0.604271140439540111
0.644572279490507771
0.589085157447391095
0.550824968436435136
0.516570611774122668
0.493013826023565971
0.471518991092721274
0.44683233495944652
0.435763463729107903
0.435845607949175318
0.428996376229204612
0.445210885756695762
0.456311762297093026
0.474756009677926361
0.50247425616882968
0.529710508166944982
0.558840620139315902
0.593163087897830565
0.551485589524171149
0.511292566099735057
0.470530229991506233
0.439743317788777788
0.414207603683068637
0.392639965243135325
0.385856702716901367
0.365379110758889791
0.372021089976419084
0.374527757556989249
0.398325447268281785
0.419383098830773737
0.438124646371541415
0.473323446696828465
0.505943959990115988
0.542931684037110673
0.521164241832273833
0.473296697281732848
0.450228956678337733
0.406327447096506755
0.375754429704322268
0.356192539556314081
0.33249026789397923
0.335205432414136473
0.334088622569165772
0.336634955546567138
0.346834076268960567
0.384118401414527355
0.407379674116770452
0.443925493696160023
0.473333833359613709
0.516228500407713287
0.500262478292892498
0.459462962114740581
0.428872726120908543
0.396639639247463982
0.360751364611509695
0.337777863371335085
0.311517572556257782
0.306498642232682972
0.296373043325212304
0.312385893021345673
0.327125454771481583
0.358553812884214729
0.389112764705227654
0.424722583451230762
0.453635840380121391
0.510194900930831974
0.510096157492111235
0.45645972725145928
0.413579452195127262
0.388353201259182712
0.362518637560728441
0.33139572225805386
0.297532892380476532
0.29920829799440174
0.303823910024431043
0.306374845658064443
0.333199368345700353
0.351009562395933505
0.385997225154446399
0.427832629837949507
0.463518347704340139
0.506146744192550679
0.515665279429930012
0.47428699269188912
0.439349134900993976
0.411468133131663028
0.376056248551978556
0.357046116216470366
0.340536227366635469
0.333334399699292738
0.331441222666822022
0.34360181345672336
0.360055816991616817
0.376485649949683643
0.408033055464426697
0.433255632856316242
0.482981355332269935
0.519084030192869528
0.545653985520265006
0.501276391783328834
0.474063860362599954
0.438311127847371529
0.41804396842916236
0.390729259676729057
0.385933301837995124
0.383927389567483568
0.379275423472512863
0.394472520740583033
0.398695015139375553
0.42166184638936749
0.45254694861763517
0.46887367863042223
0.510356496611209742
0.547690900345704446
0.5879209118419223
0.549802324393466324
0.529517694293653918
0.50000876010559725
0.478889901737252544
0.452157347166477763
0.432870702498639126
0.43481319828120657
0.426152443123735847
0.438133554213727017
0.448829157316624261
0.466946256259957615
0.500665479313360917
0.526480832873976179
0.543018171408847228
0.58982599072986186
0.640115625895537055
0.617112117154627993
0.577519640849765259
0.552918512454634414
0.539522069635818391
0.511893363994139095
0.506649093953533303
0.496156832746843024
0.487237288526872314
0.49988557848112114
0.521021228831785588
0.54326690072102346
0.553746130099898148
0.572886099742587529
0.613213706357508825
0.633138868845976588
0.634796037621927156
0.59710044949053287
0.573363936131973229
0.543939503748761766
0.523819785212637279
0.511351885023488939
0.491937096987987377
0.491721883221562073
0.481293549939091347
0.489397214328075314
0.501685804548635428
0.519503092860342353
0.528688019831525358
0.573383715337295485
0.594837780880913769
0.635187444634866649
0.57860321329007891
0.537429976237051799
0.505707001845184689
0.472655695889334815
0.452184232894862481
0.436595828003353614
0.425263675288286569
0.413278071104877298
0.420090948759906546
0.41819742544087446
0.426885802216000088
0.46105601710506755
0.480075110409598493
0.506630101363007013
0.545553049814932689
0.572612784365518324
0.537384129044934045
0.501560883089918863
0.460569299865189186
0.427487204303861112
0.395149594802498894
0.374862879143288974
0.365056269510742604
0.354862452298195519
0.352666540890724856
0.359713652475830481
0.373858908043435467
0.403459855575203974
0.426327517261624822
0.453645719695511429
0.498819698855299698
0.531261864182873467
0.498622945967092446
0.46741832355552565
0.421359002522637138
0.382340284286575849
0.352092923134152691
0.340923543394722584
0.316360343602513527
0.316658470053890695
0.309203769583919985
0.318991359380101425
0.332375626982369055
0.356091660469357751
0.391351495681839523
0.422838742665459399
0.467562881508406469
0.49861884516753191
0.479617344019741709
0.442849182400623043
0.401593277648276903
0.366518408473268664
0.333181187067103757
0.315796721826853921
0.29589732940903346
0.280789406688179088
0.281825917155708427
0.282751977999121329
0.318454860102000414
0.329118400964808822
0.364450518306032312
0.407726338103599151
0.449629482541003878
0.496981407282681198
0.491794773218960479
0.434689697537341768
0.408643753722495617
0.36307572048498743
0.332292210016322476
0.309258330713572671
0.284256399233252188
0.288342812449897845
0.281620533854927135
0.291584680635840088
0.3068725236762192
0.331417900476527583
0.368678728755251095
0.410680134490317927
0.436855739865222636
0.477777000544399921
0.505155233564748674
0.4629398689656819
0.422510430745293375
0.387012220321732048
0.359425991981808968
0.341308370054878796
0.316437553075169797
0.309318687339046938
0.303587619681576215
0.315489467290257675
0.33762861770502528
0.35799015900451403
0.399036127029495757
0.431700131825615674
0.459241653481062717
0.501005624952688189
0.528271275041027777
0.500763458773512582
0.470821680236282902
0.430273764362454902
0.395704709548592659
0.367170923576882691
0.351851618631836338
0.362629481106789275
0.351639624386818617
0.36387716565942424
0.375947225914529171
0.399957353133797711
0.427468569507718554
0.453414701629105188
0.49495098547639349
0.535239830491467172
0.573845217684610165
0.540313582194083097
0.510060334364715984
0.483556879971366038
0.45096139353939374
0.435827090210384849
0.42877716405781785
0.416151911436908495
0.423653265654437838
0.430026343897905727
0.435809447235531333
0.457152513687098805
0.494672583554129741
0.502306676070038205
0.53613685108446385
0.583181937197549627
0.629392900414895928
0.598665085721001633
0.561818220799941925
0.54795531185423052
0.520818991755605976
0.497506365003957673
0.487168725405956127
0.489702535077030821
0.484445100232060111
0.488891538058544017
0.497444776716604198
0.525198588465811134
0.541741913874494108
0.564967882817764222
0.589874096798882475
0.627347783990335417
0.617220767186307584
0.579322277382261164
0.555849242952985767
0.519676704525028454
0.5033264021434668
0.492679944201135922
0.475674254529280471
0.470985921541122399
0.466719697633651676
0.484120699994368353
0.481324410601282393
0.512144475416171918
0.5348842049827921
0.556152225283308099
0.589667030647642032
0.610043814824247077
0.562396230981596856
0.528329417925796241
0.494150794331314425
0.471610159006611462
0.437159438206751683
0.410660800059409969
0.404055142879353513
0.404994888944357034
0.400469875974386325
0.405475221156941401
0.41676132114705644
0.45166598804195679
0.461988557901875097
0.497857096974136659
0.526559913378677025
0.571337442682036345
0.522580396179976536
0.486139896813203076
0.449919353647713516
0.419526244361812517
0.390353856023155976
0.356302674048344314
0.348426864298671868
0.338487413245551372
0.332453611213080646
0.339070575388759787
0.358609249823490794
0.391798882420861028
0.418825541694576142
0.443278976603035779
0.491006134453583931
0.518889771942915967
0.495390458269739431
0.455851468546416894
0.406780991045712859
0.372594741062682311
0.342586722470817173
0.309693510667133076
0.299149290002396484
0.286951250774114708
0.278158659679143994
0.290266633904984361
0.306956141129779536
0.342220225431022262
0.364564936832945996
0.411043934313535142
0.446103448374297717
0.485317998095178893
0.478284143099569237
0.425541521562815606
0.378583379126730457
0.350585228983491537
0.319660828119858298
0.287674246289370827
0.268931005175621018
0.243594876158077733
0.255793496000607024
0.271771981890708891
0.278642931439517294
0.308732807642563389
0.338976323191255202
0.389999642707052729
0.424929243578196503
0.478079846987508716
0.462805322298788013
0.422225786699534367
0.392977605200949209
0.341986290995210274
0.316115601069077046
0.290979605176089562
0.274633824999839737
0.250992031919796466
0.257931862699825765
0.265448434527427668
0.289404345013736075
0.310876057154282126
0.345548283640473963
0.397797189093771486
0.429499250902415253
0.46871919024922748
0.49395399586739569
0.450904263956573126
0.404963669268369131
0.371797927097838543
0.331951041318473417
0.314609587327289331
0.286257749475052725
0.289142718059270942
0.274573759776800264
0.296295991815140602
0.319240381852435806
0.338649973966178519
0.364280818180602262
0.40943657347369139
0.44481347034695401
0.492236027880335159
0.525186292176070268
0.479561222496796835
0.446890484018807266
0.42153155442040624
0.387627720769249673
0.35282946848193808
0.336940963419765593
0.340473192054145113
0.338145444709174403
0.337452838572353531
0.35741631769458454
0.382515129979454804
0.411685343940669912
0.447266708536629531
0.483856171074677655
0.517086488251509713
0.564044485376128057
0.530119273882827424
0.489910376850845652
0.461417593088642664
0.432342848851282935
0.418798312266441208
0.408974881648884792
0.406774979276388282
0.400438442868917555
0.401210389613972651
0.427091216166587684
0.44666873462398804
0.462992281046406384
0.497439921681167907
0.523549964648208355
0.565812845514067519
0.622911379979276369
0.584480663612729878
0.560397277620954593
0.532286262630497164
0.501419358686435612
0.492428174181604672
0.481999632947249235
0.467560323396591149
0.465964997926620439
0.472208773724837105
0.493177132769251125
0.506433721021640637
0.534031849025760841
0.556330142763776792
0.580797096565610738
0.625797904179715814
0.623928373430142069
0.580854510708774918
0.552669312417828795
0.514768886084693067
0.50220345536877653
0.478389067704554305
0.473798800070931669
0.454640197359253651
0.45653608282678293
0.468231573661019584
0.480344080979700772
0.494156294266481555
0.52043537091745673
0.543255497873151083
0.583806685849155738
0.609183061693081451
0.550516308972080037
0.513584282105091661
0.49197262299050204
0.454957724420954224
0.436534437963659427
0.404124940505556696
0.382241161180812195
0.38610224018587469
0.38523933659090398
0.387147567583400076
0.406036008468203202
0.441675753423864503
0.453295107691217891
0.488462128758324343
0.526922199432972582
0.559389161297519477
0.512137341246344358
0.470104618788771134
0.43366857594385716
0.395961836700121861
0.369933368100060445
0.347080541429971912
0.331093849788811512
0.311380605491490325
0.326508912834019616
0.327723889003899371
0.332697664080118416
0.364513160122765523
0.390720118407885564
0.422311402024179439
0.462578278304151991
0.505878357634283793
0.481539034898157803
0.433683240019099192
0.391597899265294869
0.352208215496994104
0.312361976683871223
0.302627236630197249
0.270970678545020716
0.261185670024332295
0.271055188304361594
0.265574350572608642
0.29070041396784374
0.31763024526907635
0.36713739564225778
0.383644045658117161
0.429042641721980089
0.471398215348597271
0.466340567159023223
0.412634087699147833
0.369954071786340766
0.323964271119617564
0.300315656857895408
0.263515406344680181
0.240681699870558818
0.229939654148222261
0.228300383365751536
0.249509004710646715
0.262794638369826639
0.297522402005600484
0.327814349702381214
0.371653538491663049
0.409629231589528686
0.458567911671962702
0.46820549635824199
0.414162102835866575
0.366692047860559533
0.335209083131336294
0.289114179807114124
0.266664515231398891
0.243728269694777566
0.227180559909940988
0.237782500064970287
0.258029207347365452
0.265899801944045389
0.3045094015173192
0.331730060151599948
0.364294834878381768
0.411542988913747465
0.464051004933681455
0.477133822495814097
0.433267285429255467
0.39681182748795113
0.355942651532150378
0.323757545531527524
0.297074563290353477
0.275110388017676954
0.267908387309488571
0.25950153840201784
0.281134958482764874
0.285015904690499977
0.318591243804232593
0.363884526989914026
0.406567934818273413
0.439783913694636319
0.482847495133753524
0.511461987242438076
0.462744694472364881
0.432358456314950956
0.397185896758715629
0.373925982846154192
0.34782608586356567
0.326326698909905233
0.322585134300084064
0.318919496330113406
0.330324902187493108
0.348223481951212166
0.369448157681359246
0.410298670653979292
0.430517883957773184
0.467147064925245714
0.518293823942877596
0.553570813366611292
0.519280388062122955
0.484138455510033316
0.443671408502985476
0.428124098608190673
0.406168702712587981
0.39856714995034348
0.386788580517905933
0.386614153485435263
0.391788986040431331
0.412772153487734439
0.430584750005895744
0.460705080835749126
0.486951203465355587
0.515318500702503846
0.557770814129550763
0.615712736223110846
0.574606646939243682
0.538311097085797607
0.515972194190161826
0.496390161911745231
0.476731047685023057
0.471217928488900428
0.454808349214722407
0.456875133119751697
0.464913397391488348
0.473290553147669546
0.502039289871950345
0.520676764960425476
0.542027165353619833
0.576030501767124559
0.618530901048550241
0.609959757328033536
0.566744506450435059
0.528878473465298704
0.51427755148141463
0.490519345348554736
0.458553666273752936
0.451389620121449897
0.442765991647752044
0.440823986490281372
0.461808721836537761
0.468819226423899393
0.490606949871259801
0.510403020689178311
0.544747862045620979
0.567304103465815945
0.587646086215973029
0.553015410844197253
0.508256248247935249
0.469245034321950638
0.447782465206415792
0.420404627713880708
0.392093603226119025
0.374934480836905282
0.371716800013897175
0.374516005793926465
0.388327215364493161
0.394815218063765516
0.421180708799085812
0.444078832851679484
0.468517743214772908
0.51670158745081618
0.541819903794636737
0.50111882526523166
0.458532651530371815
0.416910327277990822
0.381904198454953991
0.349014486243925059
0.327335867106217815
0.308204795702375467
0.293693079598494056
0.29998349631602339
0.305821163042463318
0.316263536631364306
0.351729043891630122
0.38212146453771767
0.420836356483313079
0.458613732920752692
0.49729148227817116
0.467143086592356427
0.416005676077482789
0.380922050906523313
0.341313806308110035
0.301568265599599816
0.269879909641753124
0.256971870263417557
0.239497409458163835
0.243029037113193125
0.250061870416005472
0.278763633854399617
0.297471299809804912
0.334201970828373662
0.370751400424345567
0.426472499655363657
0.466933907667795856
0.453867355595056976
0.404227643203745546
0.360828879004509051
0.311800503465864409
0.27030093709368741
0.23845912959840565
0.221238357872678482
0.209859849131112219
0.20938268772364152
0.221051990837766388
0.241048908498552122
0.280642447866392475
0.306109566423628077
0.347811548834831341
0.398830208969126354
0.458526340732996418
0.448076034794275713
0.405599408340464263
0.359910605078727797
0.317889065477583166
0.276443210042906173
0.246451988485124396
0.216628677696897254
0.201944504892830973
0.206208554422860263
0.209415943474485139
0.236497822072770869
0.26747319737811126
0.317369026872846849
0.360296595221550109
0.403087716293345111
0.448853183994715188
0.469769124190012655
0.415120971487639046
0.37816722912917955
0.34957949234326624
0.299995084447256088
0.273858486301909398
0.248142829736073822
0.240751376743320089
0.243506637210849392
0.260153728326161737
0.275110374577055838
0.302963548344961142
0.337980352176029952
0.388206539584501853
0.414245021628019905
0.467914437452952137
0.492162221261325417
0.460391477213965561
0.417318957649084554
0.392347008513547757
0.354725850990018798
0.327300161539811563
0.310156394823469184
0.304116358407087839
0.29911282981211712
0.307640926226057099
0.323508104502458094
0.350882791450223885
0.383418766783811427
0.423261588416906809
0.459901269541846458
0.498925698586764887
0.542476165238728547
0.507858604204966535
0.477817116841481926
0.440402399288447044
0.408400538358412002
0.393043615433150306
0.387666719606436505
0.36630939034592841
0.362297072688457733
0.366874883821524389
0.392957613083296797
0.423995955381117062
0.437895055996210703
0.465913067921804147
0.51150413872034739
0.549107806626668027
0.602837870121002317