# vtk DataFile Version 2.0
Ellipsoid: dims 16 10 33  center 0 0 0  noise yes
ASCII

DATASET STRUCTURED_POINTS
DIMENSIONS 16 10 33
ORIGIN 1 1 1
SPACING 1 1 1
POINT_DATA 5280
SCALARS scalars double
LOOKUP_TABLE default
-0.0018426108360290528
0.0566809805234273281
0.112251385847727467
0.154707472324371376
0.208497482140858975
0.266429032484690353
0.31841911554336555
0.370244098504384389
0.427289723555247025
0.488301107883453378
0.524132743676503532
0.58649849812189736
0.641721613407135183
0.6894847067197164
0.736579770247141608
0.805658171176910409
0.0895362072520785868
0.0991620293462847635
0.136796578382508943
0.184610709064747885
0.230698782867855473
0.279627822275265059
0.334206982119040374
0.373546149064732491
0.436557753041355079
0.485607384928918084
0.550219576610563976
0.595806293839078793
0.637405678358975991
0.693425785376212911
0.754390918062261773
0.806689387828621762
0.17114940034018622
0.18724350151083019
0.210367780368442336
0.234107009962452595
0.271943335960421917
0.32678840529937131
0.36456347964911856
0.41762751523628433
0.45829388750924005
0.512440067672907618
0.553176807632652867
0.609551393018816334
0.665270002808484806
0.722430906109061355
0.760263949492837821
0.808873795570826948
0.262996968428293842
0.273707524991865403
0.283085562117557255
0.310754134417943584
0.350637801984933828
0.375161434111005276
0.424183599397709998
0.448752288365147411
0.49979319236258879
0.551790114979582969
0.591477820065770321
0.651550073582097489
0.694380203088124759
0.745750762329692396
0.798589500410118114
0.841709618673634585
0.35507891151640153
0.355399262913087877
0.367653771572533206
0.390990076139447362
0.413909958682288748
0.443209495809343157
0.477862722069527956
0.517836193773481668
0.547853306194372891
0.606132083680512967
0.638113208055865466
0.685187195291429685
0.723424404118641173
0.782308835628764743
0.828475509960941436
0.874450821050105853
0.44739522960450917
0.44158947952308053
0.461808598696419159
0.46626758035937127
0.497618389068714528
0.516783495348977495
0.541780156468881113
0.576522362817494027
0.619599224203819188
0.648035119706126261
0.696038393850411108
0.743744167262160527
0.770954942348735628
0.830881081544010192
0.868882153790897505
0.911209511128793115
0.519945922692616747
0.537024729470187312
0.53967361540960368
0.550008316536579778
0.569638490930518548
0.598457438138280118
0.623432361605509966
0.652388124247161083
0.682781300743396713
0.720464564547697139
0.748443250054133369
0.800626453382530245
0.830574799865824054
0.875246481605720827
0.923742634343667657
0.971052695870953442
0.617730990780724465
0.616594381756024768
0.630846303307337153
0.636432422503030226
0.663828462229834826
0.681810612435180263
0.696227975905054142
0.733773549639386458
0.745751466078149683
0.791839573973385891
0.818847493233180401
0.859470883183444667
0.896042876530026566
0.919283590227558567
0.972048461740612102
1.01307596576373116
0.705750433868832072
0.700242574777411253
0.720117638127048543
0.730117357307010217
0.744536628590470428
0.75598473649555431
0.774148385673517514
0.804554786683575607
0.832333426638106499
0.860975700942618771
0.901092107825809063
0.91916710354643294
0.961311951459460023
0.9970159937041988
1.03289677328533624
1.06644937982997545
0.794004251956939688
0.792938090267118034
0.80736878787151245
0.820816402604685802
0.831369339151028952
0.845440888510060384
0.866527113102855018
0.888965169413018508
0.901691273848215791
0.93199773478917014
0.954288722634869413
0.988834673073407333
1.02552538543935956
1.05762198040174282
1.10050792769488059
1.13043936043085536
0.0186035561561584475
0.0530766637141891345
0.106818544453546938
0.162143814848575318
0.214739435479946922
0.269636307685014454
0.314156765699633689
0.376536148408913585
0.434639559856523361
0.474700609999251177
0.530066870406735835
0.58994779709094658
0.638163688026780807
0.706895120333825289
0.755432628042975618
0.803926508473204016
0.0907748472364586501
0.112804824705819651
0.143049661459549393
0.176648902997488005
0.239172868240197817
0.277619084529069582
0.337252911676961475
0.384659260535797021
0.436235982847828274
0.486839774660723645
0.53848949396719259
0.58909333997302582
0.641186865789767912
0.700676293420233076
0.75058459371088071
0.804799087696563498
0.183032274355224012
0.184434138830761152
0.208233788019794114
0.240592527404646289
0.282535993691093223
0.329487449356767825
0.369866229040907435
0.413526001110510466
0.465275017509551359
0.513486618902248226
0.55876841295295876
0.607665329971274204
0.666381783534653049
0.704514709196076616
0.76879293526409842
0.816820337584211131
0.276643696753617996
0.280212501738002606
0.287879453258284068
0.301783635770421943
0.343365014365983157
0.37255838036031963
0.421726964363653145
0.454420104617500931
0.50406319399090882
0.552639084534664371
0.594381429134476558
0.639482936711501249
0.697816007327233478
0.742662410756533165
0.799449244947936233
0.834489174313745807
0.345777901140907118
0.361469423517020383
0.37454629441164411
0.386660742659509837
0.413820035389195484
0.450325029371831775
0.477653135693150377
0.523272912727546946
0.554408725533113933
0.591778905377496667
0.643324063002781332
0.682934452876562625
0.734180093868314843
0.769044630886701941
0.821662743225430314
0.877060513560174781
0.435262716291997809
0.452332828882700766
0.450887183653600476
0.471642424319551723
0.494752719964585641
0.518642783658314066
0.548831792842960686
0.586735182208683037
0.613443033031376483
0.653480305547359031
0.698555638417088565
0.736304252419162975
0.779028628231672626
0.822439035771937554
0.869394914728703339
0.91364747275141367
0.525040205672849147
0.547496968688709784
0.540987006985962804
0.545126755441852073
0.579026867353145569
0.605081750331986412
0.617759669333636574
0.657386398730257282
0.683919229903510173
0.720711357731835478
0.753268467441898792
0.792999869795348311
0.830966302994739614
0.876625999948239421
0.911580088660637999
0.953317968217967771
0.625085437388660514
0.626827855119110877
0.639424006305687964
0.641319891911086737
0.6554917297387991
0.678216293194550013
0.697843285608942154
0.723566265043614987
0.759189849769530301
0.786892283278107896
0.825983488371564545
0.861659344049049758
0.893753132568352981
0.930485064464298905
0.977210628003199799
1.02016831720080359
0.715385918283037103
0.720257688931125628
0.720978733789626069
0.734790961162836709
0.748489533583226341
0.762184061739970664
0.783061602749215657
0.80414971597345275
0.828078211000157216
0.860838765164093189
0.890542111572622308
0.921172893760881628
0.956342518143854403
0.988040431243853212
1.02538424812094764
1.06336910440548205
0.795934698628233295
0.797748531772455194
0.810526279177271602
0.820288097171795072
0.822622543176015242
0.836443100400171669
0.857746046251398053
0.878368758882083767
0.914747669470001745
0.931675284221970879
0.961055948106883884
0.990660245147644725
1.0228780964155475
1.06347071917271085
1.09532165715027041
1.13718709792519435
0.0474872231483459487
0.0765449072560066834
0.12017947097925108
0.161765508701148475
0.22728023685249793
0.273589470154060488
0.325264456841773464
0.382926797072092706
0.436883005233422939
0.480833551098374501
0.540605887827151799
0.587896565011141736
0.639017226219671497
0.698642431111592077
0.753558401306199999
0.791412263505355318
0.101651095406930361
0.110369588691953721
0.142003107061856954
0.190432187524754271
0.243734795979777319
0.281241072606441822
0.330599782258080233
0.380826471798085986
0.435777568063333232
0.492784137039127434
0.54134853739347133
0.591867945799780082
0.644370305170629543
0.702256429730644727
0.756045349798069588
0.802121451229913962
0.186751680308946372
0.18832682742012874
0.21247758983751211
0.248079901330739844
0.278785439614502861
0.322553621370169574
0.375300023764598811
0.414363881024333247
0.4620389332539247
0.509186626698591382
0.558905425890261931
0.620233367540461655
0.67186967442432699
0.715907347699828778
0.766572203684966813
0.828965786275411509
0.271036312347663955
0.272419847766498413
0.283258582609241749
0.303237976967009548
0.34134292464972682
0.375037485562999151
0.414198878095421108
0.459880665363555652
0.503007542971258492
0.55805966957855524
0.591767483250742909
0.64182060466684332
0.705588708730000347
0.748851252942215884
0.784533409372244694
0.836446251028054255
0.356657159546477087
0.357700895439808986
0.381546764962395091
0.397360466948214308
0.413665411484992251
0.45227658048991215
0.482181413203915388
0.518354453463300668
0.555522996655715473
0.601906330696460934
0.647944889920658462
0.69002817640207903
0.734225215402218856
0.780018603514427866
0.819042012959393717
0.878820604357084312
0.45296622053507829
0.452902342170205918
0.459763576137212804
0.476771445416737438
0.496586644665201637
0.515140537036274826
0.555458006827802664
0.581458792691962323
0.626735880241846566
0.663315974845697931
0.700408605177624932
0.738149302270077023
0.771340491484398538
0.818192174135016548
0.874063409813103376
0.925204979356554325
0.539739379343264991
0.542568349026752328
0.541882787651878028
0.554801204910291057
0.572937210711972233
0.596188507573252702
0.626526520560466649
0.651779741129469792
0.679407600505495313
0.725264853223907546
0.747358236302762102
0.799597706094656857
0.840544342297710356
0.882156503584692886
0.918535298098374642
0.964670011917343251
0.611879020716328159
0.636496826345987143
0.62742652403412924
0.645615108680608785
0.666540271890313396
0.673980525438075184
0.693787363104002019
0.732656016978887936
0.75189255617323103
0.781176404157736259
0.817318390187765087
0.853015051550446435
0.89560011943956519
0.930794086026074052
0.976452593199664376
1.01631419428097547
0.704335913117843271
0.719584867817043117
0.711144678084913551
0.733757773833432658
0.746720111768692241
0.76764227575725974
0.776212374963642482
0.802959010362745973
0.833012955051920079
0.854866729237334533
0.884131768700786358
0.932293277660923181
0.97046309120670482
0.99313096896821873
1.03691474244346682
1.07430968573655905
0.797082563035384606
0.806774669488271035
0.807894369721032457
0.818962114140992847
0.823066916257910841
0.841622833364480072
0.853126785138638377
0.886916812171109514
0.911929987686993848
0.935459409518008433
0.966909944931259258
0.991552621963211367
1.02427772627120439
1.05834676457091081
1.09414350248657355
1.13792429105736659
0.0798083901405334528
0.0881708109068466694
0.131321826368080985
0.178210928146656788
0.220955912362379742
0.268201593062830534
0.32169090386082394
0.384383365699253521
0.433997998164427523
0.491684354206065322
0.535738396971616848
0.590336213428733436
0.644275598424398965
0.684721415961743518
0.750952902556307755
0.798112028027882836
0.110631910536742872
0.125773445739281203
0.15313140395410732
0.200709544853159283
0.254253753965634322
0.290419099212572973
0.349201573808261223
0.397017645229042482
0.450161787549542503
0.503425653510623516
0.548785762094793683
0.604121807835198532
0.651949552861086357
0.698161096596981445
0.755769085832928456
0.803653132041498575
0.192035734503551575
0.19368000198568433
0.222921530067371476
0.251450464659597972
0.285614322563994938
0.330935865806958607
0.375830245589415801
0.430116957804931421
0.463568217758365875
0.519527214715552743
0.568578097980145913
0.617247969109762207
0.661727740526614205
0.721604071482233267
0.778597897961389451
0.820306970041162709
0.276087888381434055
0.280247404687436696
0.304152766729158308
0.315061426746548245
0.344529108540705731
0.372567025581720002
0.421575661128831269
0.460116165642295294
0.511612690283110627
0.553041415527803393
0.603627799362482009
0.653556582633920025
0.692693084205151743
0.754313036850913665
0.783838492949988419
0.847577936685048106
0.357678983617853719
0.369057184242152059
0.378621953173406411
0.403060482245519158
0.423422086129076447
0.459044591851718697
0.491431818161344069
0.513068211069509506
0.556186012965310339
0.601506219658794361
0.646969089592216662
0.691462974622843785
0.728555328377797129
0.780227066231506283
0.825610232524781829
0.874728489550379851
0.445486185021884751
0.458278870701291807
0.448419771762431141
0.471638309968268998
0.49310577063069988
0.516264347951307601
0.556648261960688839
0.585684328940648147
0.624470340974719207
0.657535916403603871
0.696592091445078943
0.73927494583676423
0.782886844826476969
0.833137371257901105
0.867884976319400092
0.915879750360587219
0.544032044737730036
0.542227638580886406
0.547350202980642964
0.559021634746372786
0.576360376635412841
0.611769526809991748
0.629725697059565492
0.640561850372681985
0.694240950397284062
0.724120335624278244
0.755708493471654696
0.795416461547400422
0.83930589805783784
0.876835382194952939
0.914605999960924287
0.970106859293142776
0.633104531303493312
0.630594164080392927
0.639846951185996549
0.649311518678569066
0.666967978562870378
0.68909770044666907
0.704055125388219794
0.736038245340293384
0.763855525489350207
0.789688341879043576
0.817849027078516255
0.863535213024812176
0.901581379993335319
0.930208492450195323
0.974772452305907255
1.01651191612420844
0.712595574988114211
0.718219308383390542
0.725610785663529323
0.727013295759075695
0.744224103835879114
0.76235539813908848
0.783597023613077037
0.805979301412392601
0.837134597537880443
0.868056827321785351
0.891858591157343894
0.922526023917046967
0.958671673443307282
0.987285821049866619
1.03748665984190813
1.06926969623130907
0.797444436932912115
0.805013117656044885
0.814469739742959997
0.811835239093097183
0.827699382377197201
0.850977175271473874
0.857666599025035392
0.884606789800851945
0.913235883413609062
0.938347957596605164
0.966848745432058787
0.99151001168678965
1.02972264758250764
1.06224864116659479
1.10197212755183682
1.14264973042879836
0.100567057132720947
0.115614085992177332
0.144127676812886185
0.185992075434253445
0.240525527403906203
0.283339346130691394
0.333355500796919779
0.385853710056754229
0.430948982978524908
0.487227740237453855
0.540445806515243765
0.602252682763228853
0.648927921003950914
0.700123481211315957
0.74760922988255829
0.809020176475515274
0.136227481651854082
0.147842371556440977
0.170765349335140676
0.212126760579992329
0.250534170249932409
0.300037698664549157
0.34798566197427222
0.398184582056370251
0.44435520022162095
0.498740254906383573
0.540783307182077677
0.595841327593842451
0.653914027453193492
0.708381904904799575
0.754749042239979073
0.81438860601849028
0.208504176649889766
0.205151380424336449
0.229306336559780249
0.255525604476038393
0.292903268319117949
0.339553923609947406
0.376401749069131375
0.420746316417599464
0.469834663733083691
0.524487420372147461
0.557770495795006371
0.623696778565982601
0.670946228086564567
0.726597058864935752
0.76986365745954477
0.820838651536205721
0.286665094574294899
0.283568773897009963
0.290453174784654933
0.317166680494944231
0.352856424492799081
0.395096336637584089
0.41881921168923425
0.470097782003366216
0.509856596040603405
0.557567250687722171
0.604948973941811574
0.649680206003616756
0.709120540079724138
0.749040754967974287
0.802358718466034571
0.847879419954616464
0.378783471453921772
0.380480249134034831
0.390718860891130282
0.403714724510882972
0.428051452620428263
0.450597462389204229
0.485378817306102495
0.532393658089713728
0.571381263502534709
0.610565238478149697
0.650385827697461893
0.687229979633446453
0.747163117349601724
0.784663936078418445
0.831362304037039257
0.879779864377283949
0.452791008684370333
0.45843146034066462
0.47182663053563928
0.476216533441995993
0.499286709091229297
0.521994005507909753
0.557385354670835831
0.584397283671868828
0.621634240359539736
0.671129926869472593
0.707097536831308604
0.739673981083109888
0.78366160529838913
0.832269465668402542
0.87585521275477396
0.925668012908803628
0.547899610531357051
0.546456514628285484
0.547371698458869571
0.557771657158814826
0.57928140691388752
0.601811404514321358
0.627345359203641872
0.648722376905174425
0.683410296072982648
0.727270039997983675
0.76831254045812114
0.800450358938446516
0.832245982261246242
0.880658320444187348
0.924788450840484111
0.969625252882639566
0.633750143748907036
0.629108169683995855
0.636673956140029196
0.642398360865493068
0.666764810870512536
0.688558595834374843
0.708638207348594173
0.733705438927010012
0.760072064734979125
0.782422165141885562
0.827570161698559237
0.858215213415616685
0.896692850810119957
0.943724705369559769
0.982167051126042967
1.01575869818900144
0.725156929928983174
0.726153102530857963
0.724369340680490748
0.739550114693538485
0.750994490370194168
0.771316865853554079
0.785209479791051379
0.808205028840467854
0.835438082243513569
0.855404488437726096
0.89871846468694716
0.926867440761882655
0.965964958728234846
0.995502029829480106
1.04209735516497415
1.06824676946712094
0.807014694755544659
0.802458287588572072
0.810246908807280231
0.823902164419970773
0.831514861081140477
0.849501314791042295
0.871360974618141992
0.886434492930315066
0.908661477627019987
0.935337365541864196
0.965869092146555586
1.00052944675411326
1.0342101640154755
1.06517390353460772
1.10380531697797202
1.13636141016118408
0.124763224124908451
0.132760113238672761
0.162668117434762866
0.199596852952778375
0.245706847324308086
0.288837135938499412
0.340154649480340687
0.392269349723079364
0.44768858673744194
0.49242968721706204
0.539702911705600918
0.603626807673539045
0.65795929567710576
0.709836824631045249
0.753517879666477985
0.814128946297930201
0.157354544349444125
0.150620058086272518
0.189250779377280992
0.219290397552080712
0.257341531617952313
0.299951878672618411
0.346858168071153272
0.409263775988738254
0.458313162013008535
0.503695506479186483
0.552316937643843153
0.60200795740249291
0.650249238318163614
0.707907329830927745
0.757975909258363112
0.814320249270376939
0.220739457457442056
0.232358745046399334
0.241331030607145169
0.265089171804155033
0.30550274358955487
0.338304617068173497
0.386942288362204456
0.431200267204212673
0.465800421653170593
0.524038900150868847
0.571460949999377577
0.619562915544041526
0.674511764309729367
0.725875555288383989
0.77536071616797464
0.825553599029405283
0.29760233750710291
0.297226308950961526
0.312022567502008685
0.334442055397178084
0.371237726839510229
0.397558801516124716
0.425878883088703419
0.474786861954566208
0.522709495337443153
0.566613989362233395
0.610712720657905273
0.650176871895248309
0.704859274124453594
0.74802475989251338
0.805086116178325706
0.857344052301138304
0.374892441052269432
0.386894226291361221
0.392767934749895409
0.404262390401628313
0.432502216572439036
0.456892930106243489
0.488988055653689691
0.526303025913916533
0.57108630912906444
0.609065194339538873
0.65318027245542376
0.697317017534301642
0.740038515891870752
0.793320825860682977
0.831291186599026677
0.878968774750758408
0.454838429526409516
0.468318688300293995
0.474945087775883401
0.480470515843302415
0.515097919382126013
0.532302159646651951
0.562645923805063286
0.587577892395664492
0.628210941645864773
0.669084025949171157
0.701913184235613108
0.749336495868290431
0.788656385705653773
0.835581329448152221
0.877968032341840843
0.929564543292493828
0.546316871971714191
0.555230128857339023
0.556923446238744013
0.566028997106826193
0.586679934163274797
0.611295854355415003
0.629369321113745772
0.656247143020931345
0.69190330703397307
0.729703288873036704
0.770161150720654275
0.789691428525737704
0.839357704410242045
0.883619349741086912
0.929077467499429099
0.963220677892723587
0.638799691313839735
0.642022846996443741
0.647892036887786738
0.659860902287640161
0.675917010671543084
0.687350557642853022
0.712525116720152618
0.73564726511093248
0.755532954872508378
0.789369693777031034
0.82147456231675875
0.867048673128563374
0.900928909044041104
0.94633776844710904
0.978632017058538972
1.02905067728625044
0.727009016550799525
0.728375378316117539
0.722409732363106794
0.751358032557268185
0.74702160777122828
0.7695176369507154
0.796041375482739233
0.81962851931780889
0.837916425307037027
0.866903393408714695
0.894705696650998084
0.93031241594057501
0.967338365280621781
0.997775493464932883
1.03574315748983814
1.08123761928068562
0.805785573952959577
0.809102467133826164
0.820218312731457622
0.830155562274472625
0.834506335331340665
0.852188603387564081
0.879203671828158839
0.892394112817875174
0.908201400736087794
0.946422698265654727
0.96396647028163962
1.00360681167297083
1.02273653403764286
1.0621191564148369
1.09963999328919226
1.13405654240153764
0.147396891117095974
0.154071691210013045
0.186266202864566133
0.218557065022109448
0.256208675681566023
0.299511978199245688
0.356968995937936406
0.408549236399399496
0.459159708998288507
0.497248654513784694
0.553478646082783854
0.60943479760639252
0.661351127542051942
0.708846652305481939
0.75866689838687984
0.808428546685020843
0.168308818388261533
0.183421797101353756
0.198031659280214212
0.241818054849609443
0.274427250065859052
0.324999279217637882
0.370710161875445476
0.410179755155803405
0.45698172525611841
0.508251740849277156
0.563356749481625063
0.617598655859191714
0.665937089470475807
0.706722919390324056
0.765437973676662331
0.818438443667115045
0.228340806909514804
0.229928408612437296
0.258688269404435234
0.28990957231306147
0.318245799603618706
0.352069040445567971
0.402366619975941364
0.436416749989867847
0.491419454704797753
0.533146839641295167
0.584622642757268829
0.634825365760866345
0.682407623686926423
0.724426059415325452
0.785078035571457833
0.829442683129895442
0.308716632892849174
0.306044923040502737
0.318706476506982028
0.346759624954950496
0.374571384004652785
0.3998754560775023
0.447693810435753958
0.484136429151469871
0.530134883661991796
0.570152987859602223
0.620896315375508712
0.660028346894906415
0.724894492423890258
0.766252919946046829
0.807010637374103945
0.845963432167164964
0.380914079843132192
0.393209862070822647
0.404686928772241439
0.414631055143673488
0.436712770580147014
0.467879810741616886
0.497217600213818722
0.53976218497825379
0.580273404401518977
0.616983476677340992
0.660333910321040052
0.711708836649648346
0.752168873499235668
0.796187167685254105
0.840387988848235623
0.892287687412316455
0.466577263286782951
0.477890346424394208
0.487727685338903427
0.49435685928345402
0.520500791632401594
0.542155179851999347
0.572401114755036855
0.600201638787291269
0.629179727345675066
0.681380742895785763
0.706024295352243758
0.743250030654044491
0.782860618155224786
0.843063962676483758
0.884215735774723788
0.932562723448960185
0.55425276259889722
0.558517841834437756
0.570976031050746125
0.573766106764475481
0.593530712653720705
0.620200152198018495
0.635777415012719338
0.663118436026585489
0.704704538854940443
0.731406676152558832
0.766242714245562784
0.808129621596515912
0.850632360828066592
0.885710918673427661
0.922466482647963493
0.970887406583347934
0.643233029569238113
0.644318259711231245
0.653481860479314003
0.656680750328225704
0.674407379618594094
0.685457743545245468
0.720701441664214015
0.751850744069666344
0.770226595194704156
0.805520617292193708
0.839553099542248882
0.870027526662958239
0.904282436240559151
0.943041399171538619
0.984161801189300856
1.02638294586518186
0.728138078071736472
0.729872489411471981
0.734718637035176925
0.742424235949085798
0.752293304292216858
0.77694633040369343
0.796082166635661115
0.805240093138277713
0.844560806531681973
0.872545552266087765
0.899813081160560246
0.927854471230305844
0.972786081143092174
0.999101003796316278
1.04341940162739188
1.0832380659912948
0.813747283715050118
0.804935928237536569
0.829374407763374122
0.830586183428584701
0.836664943533561245
0.854030639503590705
0.87618679957790857
0.897478298165377497
0.921848851715365458
0.95159769993636778
0.981135152097263985
1.00573688109715786
1.03529700343373854
1.05808008239427842
1.0994722404225119
1.13573157728683682
0.173468058109283452
0.174270893478424171
0.204454461667353926
0.237478052172271359
0.276754108310587221
0.315176599705080163
0.368670552735415713
0.41460372458971706
0.465297825380140029
0.516636975354824668
0.561736956173446322
0.614648805523010933
0.664081506378559561
0.717135441312964916
0.763042067987877881
0.821907292205182882
0.193645246496607915
0.20578143123256179
0.226669955169998827
0.254367583036384681
0.286548108383659572
0.335011277490469328
0.369423879290724233
0.420848639827451909
0.470299745385898471
0.517363351777917257
0.573867992361341783
0.627586427849130435
0.670956244366488375
0.719811547274758712
0.7771212981371447
0.816731706630375864
0.250954083320242827
0.257524047511845433
0.266088916344805249
0.304757599049372163
0.325959618392090145
0.365719642814783863
0.41258079292628097
0.461325958849377604
0.491639178391608256
0.536771003683143455
0.592224297934781929
0.639459446140596799
0.689614048885347275
0.737232549364328915
0.789002467345960468
0.837494995925917807
0.319820707523683689
0.319844422606982204
0.340343555722568081
0.358983106465544655
0.377746881743172169
0.411958803990706557
0.449195456744334087
0.48809287637455312
0.532090649841581054
0.57815091203715574
0.625473124177877593
0.674213136372738497
0.709208672056373168
0.758710809085479609
0.808120293833867298
0.858727508908297077
0.396747749305957353
0.399329115233674092
0.41138496550702397
0.42474001054895244
0.44561378909994892
0.478499936824683225
0.505019353505551827
0.537731661997114752
0.583910226693359569
0.624293580929435321
0.661824924577517515
0.705387383603834683
0.758539158973037697
0.803250364438935383
0.843642083035561874
0.89472757679533188
0.477949342494849216
0.482089322156060651
0.490120292189819839
0.50282586086463199
0.520450885929547913
0.551514148638714619
0.576617356127570257
0.607239851747646386
0.639516253744308538
0.677999461014836435
0.714413411740172477
0.756399776890911646
0.801261705533906188
0.839706609806474713
0.884589101255151222
0.93465461114181847
0.551671228939559555
0.561284078446505852
0.574495251321254008
0.580950886286101809
0.594804244352514999
0.62349766412538743
0.646545926318587982
0.674315360547819043
0.701795714975999796
0.732364290745041058
0.76654341427090289
0.805752949931279439
0.851059544807699186
0.906923980216110426
0.929947614239595377
0.972618553574997047
0.657026470671384977
0.635970958387533147
0.658420669236173817
0.672836227285315114
0.677215614959432055
0.702861416577014841
0.723150102460944799
0.752300460906130675
0.774139179816646483
0.805862640346306836
0.831794865463271416
0.872142119799362292
0.906744897467866795
0.95382805327115594
0.98874973077989492
1.03274959487080342
0.733527795589844045
0.740628245323406764
0.751280239503650193
0.747733503834936086
0.756795130467622146
0.768589397158287557
0.805319284078087283
0.825028195376871554
0.835360681968074226
0.882321399944263063
0.909031979814269087
0.944485830194137566
0.977301120836755244
1.00947229362263302
1.04512046754116805
1.08424306927498781
0.810888138610212139
0.814947059178381839
0.832703798728881561
0.840182978991664053
0.847980092989644607
0.860017372494722876
0.882300909557769075
0.906678238555385763
0.924595671509904404
0.950854857942554754
0.977368252213912991
1.0219133673609162
1.03188584597461674
1.06805147659053401
1.11329733324565705
1.15138222803822288
0.207976725101470972
0.20820285407772765
0.226914471785227473
0.251042402759185268
0.292093814071176405
0.330649410088857065
0.380128946763129694
0.415338364089046841
0.47103331408134147
0.51554231882095336
0.574437745968505609
0.619237555015101915
0.671125633914243513
0.729683237803072871
0.766627118351881243
0.824551757237942495
0.223080161007269823
0.22238488921940941
0.244833597633710015
0.281648356384701204
0.313478840973430095
0.354821845559131877
0.392878303030290754
0.436181583967491404
0.488201024967715114
0.530980159135330587
0.573811960791459907
0.626940921345123248
0.675282535335525402
0.732153700100904303
0.773009926839663075
0.829186841221530191
0.268281949139737241
0.27485840523517957
0.278275339788754739
0.324418497303896991
0.338474627865685385
0.38412644730673895
0.422486207679607484
0.450852961765811411
0.511402162273393968
0.554866858690011955
0.599230935411221077
0.648437322047079601
0.691108612518948395
0.744276740586393926
0.787118940476113305
0.844697989020172568
0.340732971032460585
0.338449065902341306
0.346773984965395354
0.365974650933348855
0.400649934050170686
0.428716477577869848
0.465310161317880555
0.491597718503666181
0.538530281370321995
0.580570571752739517
0.634413187473766849
0.677706898801486712
0.727781859171481194
0.775381924444127679
0.828401318835269351
0.870624703566233338
0.402288464135808599
0.405149472067100114
0.422766404399545714
0.439503516756118595
0.46413082106496456
0.488690144512649971
0.522340536096699615
0.560167729134323111
0.591960670911764963
0.625965688121673525
0.672628619677017592
0.713332116110676373
0.754132192958666736
0.809495964315202543
0.846041237323571726
0.891278026324696548
0.488891503307816111
0.495853530512316121
0.502063883795759391
0.515823072575695707
0.524899243309954855
0.555335926744673025
0.585257203610968557
0.61366036233900334
0.644193056795744123
0.688916805106091656
0.727060651129935454
0.76376880399504754
0.803845196035173237
0.850496894568814499
0.88407748941896902
0.93583102212780378
0.573532174984618837
0.568489252692571445
0.577442988219892706
0.597547469861084979
0.600467466264713923
0.631158430546276517
0.651648078759511251
0.674814234432044135
0.713156045759127166
0.742557971559315022
0.776047430107290936
0.812547646807681212
0.855627274448872654
0.897248093425061732
0.941511746620105172
0.978406140861805218
0.660153267600568472
0.661954456900813004
0.657682734860314255
0.673302790376315574
0.684318687526696334
0.699540277263381305
0.729851637495040673
0.746978807884936979
0.782254900237251194
0.820381650523195116
0.843187311682526142
0.878381322688092436
0.913306433762592018
0.948689000241464853
0.997388071017661804
1.03814376431706035
0.748159553743872663
0.735624173677660753
0.742076485568942457
0.752268444865510255
0.76551055722766459
0.779431316608042324
0.808738307416388746
0.818979547521853979
0.850303914514385584
0.876219907667500575
0.912352415985531295
0.945197497555819166
0.980875391932609086
1.00388209240968984
1.0458398269178002
1.08424676709704948
0.827194713017971872
0.824122517416525091
0.840193387262202385