# vtk DataFile Version 2.0
UG Cylinder: radial divisions 30   levels 30   noise no
ASCII

DATASET UNSTRUCTURED_GRID
POINTS 900 float
4.83333 0 0
4.72771 1.00491 0
4.41547 1.96589 0
3.91025 2.84096 0
3.23413 3.59187 0
2.41667 4.18579 0
1.49358 4.59677 0
0.505221 4.80686 0
-0.505221 4.80686 0
-1.49358 4.59677 0
-2.41667 4.18579 0
-3.23413 3.59187 0
-3.91025 2.84096 0
-4.41547 1.96589 0
-4.72771 1.00491 0
-4.83333 5.91913e-16 0
-4.72771 -1.00491 0
-4.41547 -1.96589 0
-3.91025 -2.84096 0
-3.23413 -3.59187 0
-2.41667 -4.18579 0
-1.49358 -4.59677 0
-0.505221 -4.80686 0
0.505221 -4.80686 0
1.49358 -4.59677 0
2.41667 -4.18579 0
3.23413 -3.59187 0
3.91025 -2.84096 0
4.41547 -1.96589 0
4.72771 -1.00491 0
4.83333 0 1
4.72771 1.00491 1
4.41547 1.96589 1
3.91025 2.84096 1
3.23413 3.59187 1
2.41667 4.18579 1
1.49358 4.59677 1
0.505221 4.80686 1
-0.505221 4.80686 1
-1.49358 4.59677 1
-2.41667 4.18579 1
-3.23413 3.59187 1
-3.91025 2.84096 1
-4.41547 1.96589 1
-4.72771 1.00491 1
-4.83333 5.91913e-16 1
-4.72771 -1.00491 1
-4.41547 -1.96589 1
-3.91025 -2.84096 1
-3.23413 -3.59187 1
-2.41667 -4.18579 1
-1.49358 -4.59677 1
-0.505221 -4.80686 1
0.505221 -4.80686 1
1.49358 -4.59677 1
2.41667 -4.18579 1
3.23413 -3.59187 1
3.91025 -2.84096 1
4.41547 -1.96589 1
4.72771 -1.00491 1
4.83333 0 2
4.72771 1.00491 2
4.41547 1.96589 2
3.91025 2.84096 2
3.23413 3.59187 2
2.41667 4.18579 2
1.49358 4.59677 2
0.505221 4.80686 2
-0.505221 4.80686 2
-1.49358 4.59677 2
-2.41667 4.18579 2
-3.23413 3.59187 2
-3.91025 2.84096 2
-4.41547 1.96589 2
-4.72771 1.00491 2
-4.83333 5.91913e-16 2
-4.72771 -1.00491 2
-4.41547 -1.96589 2
-3.91025 -2.84096 2
-3.23413 -3.59187 2
-2.41667 -4.18579 2
-1.49358 -4.59677 2
-0.505221 -4.80686 2
0.505221 -4.80686 2
1.49358 -4.59677 2
2.41667 -4.18579 2
3.23413 -3.59187 2
3.91025 -2.84096 2
4.41547 -1.96589 2
4.72771 -1.00491 2
4.83333 0 3
4.72771 1.00491 3
4.41547 1.96589 3
3.91025 2.84096 3
3.23413 3.59187 3
2.41667 4.18579 3
1.49358 4.59677 3
0.505221 4.80686 3
-0.505221 4.80686 3
-1.49358 4.59677 3
-2.41667 4.18579 3
-3.23413 3.59187 3
-3.91025 2.84096 3
-4.41547 1.96589 3
-4.72771 1.00491 3
-4.83333 5.91913e-16 3
-4.72771 -1.00491 3
-4.41547 -1.96589 3
-3.91025 -2.84096 3
-3.23413 -3.59187 3
-2.41667 -4.18579 3
-1.49358 -4.59677 3
-0.505221 -4.80686 3
0.505221 -4.80686 3
1.49358 -4.59677 3
2.41667 -4.18579 3
3.23413 -3.59187 3
3.91025 -2.84096 3
4.41547 -1.96589 3
4.72771 -1.00491 3
4.83333 0 4
4.72771 1.00491 4
4.41547 1.96589 4
3.91025 2.84096 4
3.23413 3.59187 4
2.41667 4.18579 4
1.49358 4.59677 4
0.505221 4.80686 4
-0.505221 4.80686 4
-1.49358 4.59677 4
-2.41667 4.18579 4
-3.23413 3.59187 4
-3.91025 2.84096 4
-4.41547 1.96589 4
-4.72771 1.00491 4
-4.83333 5.91913e-16 4
-4.72771 -1.00491 4
-4.41547 -1.96589 4
-3.91025 -2.84096 4
-3.23413 -3.59187 4
-2.41667 -4.18579 4
-1.49358 -4.59677 4
-0.505221 -4.80686 4
0.505221 -4.80686 4
1.49358 -4.59677 4
2.41667 -4.18579 4
3.23413 -3.59187 4
3.91025 -2.84096 4
4.41547 -1.96589 4
4.72771 -1.00491 4
4.83333 0 5
4.72771 1.00491 5
4.41547 1.96589 5
3.91025 2.84096 5
3.23413 3.59187 5
2.41667 4.18579 5
1.49358 4.59677 5
0.505221 4.80686 5
-0.505221 4.80686 5
-1.49358 4.59677 5
-2.41667 4.18579 5
-3.23413 3.59187 5
-3.91025 2.84096 5
-4.41547 1.96589 5
-4.72771 1.00491 5
-4.83333 5.91913e-16 5
-4.72771 -1.00491 5
-4.41547 -1.96589 5
-3.91025 -2.84096 5
-3.23413 -3.59187 5
-2.41667 -4.18579 5
-1.49358 -4.59677 5
-0.505221 -4.80686 5
0.505221 -4.80686 5
1.49358 -4.59677 5
2.41667 -4.18579 5
3.23413 -3.59187 5
3.91025 -2.84096 5
4.41547 -1.96589 5
4.72771 -1.00491 5
4.83333 0 6
4.72771 1.00491 6
4.41547 1.96589 6
3.91025 2.84096 6
3.23413 3.59187 6
2.41667 4.18579 6
1.49358 4.59677 6
0.505221 4.80686 6
-0.505221 4.80686 6
-1.49358 4.59677 6
-2.41667 4.18579 6
-3.23413 3.59187 6
-3.91025 2.84096 6
-4.41547 1.96589 6
-4.72771 1.00491 6
-4.83333 5.91913e-16 6
-4.72771 -1.00491 6
-4.41547 -1.96589 6
-3.91025 -2.84096 6
-3.23413 -3.59187 6
-2.41667 -4.18579 6
-1.49358 -4.59677 6
-0.505221 -4.80686 6
0.505221 -4.80686 6
1.49358 -4.59677 6
2.41667 -4.18579 6
3.23413 -3.59187 6
3.91025 -2.84096 6
4.41547 -1.96589 6
4.72771 -1.00491 6
4.83333 0 7
4.72771 1.00491 7
4.41547 1.96589 7
3.91025 2.84096 7
3.23413 3.59187 7
2.41667 4.18579 7
1.49358 4.59677 7
0.505221 4.80686 7
-0.505221 4.80686 7
-1.49358 4.59677 7
-2.41667 4.18579 7
-3.23413 3.59187 7
-3.91025 2.84096 7
-4.41547 1.96589 7
-4.72771 1.00491 7
-4.83333 5.91913e-16 7
-4.72771 -1.00491 7
-4.41547 -1.96589 7
-3.91025 -2.84096 7
-3.23413 -3.59187 7
-2.41667 -4.18579 7
-1.49358 -4.59677 7
-0.505221 -4.80686 7
0.505221 -4.80686 7
1.49358 -4.59677 7
2.41667 -4.18579 7
3.23413 -3.59187 7
3.91025 -2.84096 7
4.41547 -1.96589 7
4.72771 -1.00491 7
4.83333 0 8
4.72771 1.00491 8
4.41547 1.96589 8
3.91025 2.84096 8
3.23413 3.59187 8
2.41667 4.18579 8
1.49358 4.59677 8
0.505221 4.80686 8
-0.505221 4.80686 8
-1.49358 4.59677 8
-2.41667 4.18579 8
-3.23413 3.59187 8
-3.91025 2.84096 8
-4.41547 1.96589 8
-4.72771 1.00491 8
-4.83333 5.91913e-16 8
-4.72771 -1.00491 8
-4.41547 -1.96589 8
-3.91025 -2.84096 8
-3.23413 -3.59187 8
-2.41667 -4.18579 8
-1.49358 -4.59677 8
-0.505221 -4.80686 8
0.505221 -4.80686 8
1.49358 -4.59677 8
2.41667 -4.18579 8
3.23413 -3.59187 8
3.91025 -2.84096 8
4.41547 -1.96589 8
4.72771 -1.00491 8
4.83333 0 9
4.72771 1.00491 9
4.41547 1.96589 9
3.91025 2.84096 9
3.23413 3.59187 9
2.41667 4.18579 9
1.49358 4.59677 9
0.505221 4.80686 9
-0.505221 4.80686 9
-1.49358 4.59677 9
-2.41667 4.18579 9
-3.23413 3.59187 9
-3.91025 2.84096 9
-4.41547 1.96589 9
-4.72771 1.00491 9
-4.83333 5.91913e-16 9
-4.72771 -1.00491 9
-4.41547 -1.96589 9
-3.91025 -2.84096 9
-3.23413 -3.59187 9
-2.41667 -4.18579 9
-1.49358 -4.59677 9
-0.505221 -4.80686 9
0.505221 -4.80686 9
1.49358 -4.59677 9
2.41667 -4.18579 9
3.23413 -3.59187 9
3.91025 -2.84096 9
4.41547 -1.96589 9
4.72771 -1.00491 9
4.83333 0 10
4.72771 1.00491 10
4.41547 1.96589 10
3.91025 2.84096 10
3.23413 3.59187 10
2.41667 4.18579 10
1.49358 4.59677 10
0.505221 4.80686 10
-0.505221 4.80686 10
-1.49358 4.59677 10
-2.41667 4.18579 10
-3.23413 3.59187 10
-3.91025 2.84096 10
-4.41547 1.96589 10
-4.72771 1.00491 10
-4.83333 5.91913e-16 10
-4.72771 -1.00491 10
-4.41547 -1.96589 10
-3.91025 -2.84096 10
-3.23413 -3.59187 10
-2.41667 -4.18579 10
-1.49358 -4.59677 10
-0.505221 -4.80686 10
0.505221 -4.80686 10
1.49358 -4.59677 10
2.41667 -4.18579 10
3.23413 -3.59187 10
3.91025 -2.84096 10
4.41547 -1.96589 10
4.72771 -1.00491 10
4.83333 0 11
4.72771 1.00491 11
4.41547 1.96589 11
3.91025 2.84096 11
3.23413 3.59187 11
2.41667 4.18579 11
1.49358 4.59677 11
0.505221 4.80686 11
-0.505221 4.80686 11
-1.49358 4.59677 11
-2.41667 4.18579 11
-3.23413 3.59187 11
-3.91025 2.84096 11
-4.41547 1.96589 11
-4.72771 1.00491 11
-4.83333 5.91913e-16 11
-4.72771 -1.00491 11
-4.41547 -1.96589 11
-3.91025 -2.84096 11
-3.23413 -3.59187 11
-2.41667 -4.18579 11
-1.49358 -4.59677 11
-0.505221 -4.80686 11
0.505221 -4.80686 11
1.49358 -4.59677 11
2.41667 -4.18579 11
3.23413 -3.59187 11
3.91025 -2.84096 11
4.41547 -1.96589 11
4.72771 -1.00491 11
4.83333 0 12
4.72771 1.00491 12
4.41547 1.96589 12
3.91025 2.84096 12
3.23413 3.59187 12
2.41667 4.18579 12
1.49358 4.59677 12
0.505221 4.80686 12
-0.505221 4.80686 12
-1.49358 4.59677 12
-2.41667 4.18579 12
-3.23413 3.59187 12
-3.91025 2.84096 12
-4.41547 1.96589 12
-4.72771 1.00491 12
-4.83333 5.91913e-16 12
-4.72771 -1.00491 12
-4.41547 -1.96589 12
-3.91025 -2.84096 12
-3.23413 -3.59187 12
-2.41667 -4.18579 12
-1.49358 -4.59677 12
-0.505221 -4.80686 12
0.505221 -4.80686 12
1.49358 -4.59677 12
2.41667 -4.18579 12
3.23413 -3.59187 12
3.91025 -2.84096 12
4.41547 -1.96589 12
4.72771 -1.00491 12
4.83333 0 13
4.72771 1.00491 13
4.41547 1.96589 13
3.91025 2.84096 13
3.23413 3.59187 13
2.41667 4.18579 13
1.49358 4.59677 13
0.505221 4.80686 13
-0.505221 4.80686 13
-1.49358 4.59677 13
-2.41667 4.18579 13
-3.23413 3.59187 13
-3.91025 2.84096 13
-4.41547 1.96589 13
-4.72771 1.00491 13
-4.83333 5.91913e-16 13
-4.72771 -1.00491 13
-4.41547 -1.96589 13
-3.91025 -2.84096 13
-3.23413 -3.59187 13
-2.41667 -4.18579 13
-1.49358 -4.59677 13
-0.505221 -4.80686 13
0.505221 -4.80686 13
1.49358 -4.59677 13
2.41667 -4.18579 13
3.23413 -3.59187 13
3.91025 -2.84096 13
4.41547 -1.96589 13
4.72771 -1.00491 13
4.83333 0 14
4.72771 1.00491 14
4.41547 1.96589 14
3.91025 2.84096 14
3.23413 3.59187 14
2.41667 4.18579 14
1.49358 4.59677 14
0.505221 4.80686 14
-0.505221 4.80686 14
-1.49358 4.59677 14
-2.41667 4.18579 14
-3.23413 3.59187 14
-3.91025 2.84096 14
-4.41547 1.96589 14
-4.72771 1.00491 14
-4.83333 5.91913e-16 14
-4.72771 -1.00491 14
-4.41547 -1.96589 14
-3.91025 -2.84096 14
-3.23413 -3.59187 14
-2.41667 -4.18579 14
-1.49358 -4.59677 14
-0.505221 -4.80686 14
0.505221 -4.80686 14
1.49358 -4.59677 14
2.41667 -4.18579 14
3.23413 -3.59187 14
3.91025 -2.84096 14
4.41547 -1.96589 14
4.72771 -1.00491 14
4.83333 0 15
4.72771 1.00491 15
4.41547 1.96589 15
3.91025 2.84096 15
3.23413 3.59187 15
2.41667 4.18579 15
1.49358 4.59677 15
0.505221 4.80686 15
-0.505221 4.80686 15
-1.49358 4.59677 15
-2.41667 4.18579 15
-3.23413 3.59187 15
-3.91025 2.84096 15
-4.41547 1.96589 15
-4.72771 1.00491 15
-4.83333 5.91913e-16 15
-4.72771 -1.00491 15
-4.41547 -1.96589 15
-3.91025 -2.84096 15
-3.23413 -3.59187 15
-2.41667 -4.18579 15
-1.49358 -4.59677 15
-0.505221 -4.80686 15
0.505221 -4.80686 15
1.49358 -4.59677 15
2.41667 -4.18579 15
3.23413 -3.59187 15
3.91025 -2.84096 15
4.41547 -1.96589 15
4.72771 -1.00491 15
4.83333 0 16
4.72771 1.00491 16
4.41547 1.96589 16
3.91025 2.84096 16
3.23413 3.59187 16
2.41667 4.18579 16
1.49358 4.59677 16
0.505221 4.80686 16
-0.505221 4.80686 16
-1.49358 4.59677 16
-2.41667 4.18579 16
-3.23413 3.59187 16
-3.91025 2.84096 16
-4.41547 1.96589 16
-4.72771 1.00491 16
-4.83333 5.91913e-16 16
-4.72771 -1.00491 16
-4.41547 -1.96589 16
-3.91025 -2.84096 16
-3.23413 -3.59187 16
-2.41667 -4.18579 16
-1.49358 -4.59677 16
-0.505221 -4.80686 16
0.505221 -4.80686 16
1.49358 -4.59677 16
2.41667 -4.18579 16
3.23413 -3.59187 16
[...]
POINT_DATA 900
SCALARS scalars double
LOOKUP_TABLE default
0
0.0666667
0.133333
0.2
0.266667
0.333333
0.4
0.466667
0.533333
0.6
0.666667
0.733333
0.8
0.866667
0.933333
1
0.933333
0.866667
0.8
0.733333
0.666667
0.6
0.533333
0.466667
0.4
0.333333
0.266667
0.2
0.133333
0.0666667
0.042
0.0246667
0.0913333
0.158
0.224667
0.291333
0.358
0.424667
0.491333
0.558
0.624667
0.691333
0.758
0.824667
0.891333
0.958
0.975333
0.908667
0.842
0.775333
0.708667
0.642
0.575333
0.508667
0.442
0.375333
0.308667
0.242
0.175333
0.108667
0.084
0.0173333
0.0493333
0.116
0.182667
0.249333
0.316
0.382667
0.449333
0.516
0.582667
0.649333
0.716
0.782667
0.849333
0.916
0.982667
0.950667
0.884
0.817333
0.750667
0.684
0.617333
0.550667
0.484
0.417333
0.350667
0.284
0.217333
0.150667
0.126
0.0593333
0.00733333
0.074
0.140667
0.207333
0.274
0.340667
0.407333
0.474
0.540667
0.607333
0.674
0.740667
0.807333
0.874
0.940667
0.992667
0.926
0.859333
0.792667
0.726
0.659333
0.592667
0.526
0.459333
0.392667
0.326
0.259333
0.192667
0.168
0.101333
0.0346667
0.032
0.0986667
0.165333
0.232
0.298667
0.365333
0.432
0.498667
0.565333
0.632
0.698667
0.765333
0.832
0.898667
0.965333
0.968
0.901333
0.834667
0.768
0.701333
0.634667
0.568
0.501333
0.434667
0.368
0.301333
0.234667
0.21
0.143333
0.0766667
0.01
0.0566667
0.123333
0.19
0.256667
0.323333
0.39
0.456667
0.523333
0.59
0.656667
0.723333
0.79
0.856667
0.923333
0.99
0.943333
0.876667
0.81
0.743333
0.676667
0.61
0.543333
0.476667
0.41
0.343333
0.276667
0.252
0.185333
0.118667
0.052
0.0146667
0.0813333
0.148
0.214667
0.281333
0.348
0.414667
0.481333
0.548
0.614667
0.681333
0.748
0.814667
0.881333
0.948
0.985333
0.918667
0.852
0.785333
0.718667
0.652
0.585333
0.518667
0.452
0.385333
0.318667
0.294
0.227333
0.160667
0.094
0.0273333
0.0393333
0.106
0.172667
0.239333
0.306
0.372667
0.439333
0.506
0.572667
0.639333
0.706
0.772667
0.839333
0.906
0.972667
0.960667
0.894
0.827333
0.760667
0.694
0.627333
0.560667
0.494
0.427333
0.360667
0.336
0.269333
0.202667
0.136
0.0693333
0.00266667
0.064
0.130667
0.197333
0.264
0.330667
0.397333
0.464
0.530667
0.597333
0.664
0.730667
0.797333
0.864
0.930667
0.997333
0.936
0.869333
0.802667
0.736
0.669333
0.602667
0.536
0.469333
0.402667
0.378
0.311333
0.244667
0.178
0.111333
0.0446667
0.022
0.0886667
0.155333
0.222
0.288667
0.355333
0.422
0.488667
0.555333
0.622
0.688667
0.755333
0.822
0.888667
0.955333
0.978
0.911333
0.844667
0.778
0.711333
0.644667
0.578
0.511333
0.444667
0.42
0.353333
0.286667
0.22
0.153333
0.0866667
0.02
0.0466667
0.113333
0.18
0.246667
0.313333
0.38
0.446667
0.513333
0.58
0.646667
0.713333
0.78
0.846667
0.913333
0.98
0.953333
0.886667
0.82
0.753333
0.686667
0.62
0.553333
0.486667
0.462
0.395333
0.328667
0.262
0.195333
0.128667
0.062
0.00466667
0.0713333
0.138
0.204667
0.271333
0.338
0.404667
0.471333
0.538
0.604667
0.671333
0.738
0.804667
0.871333
0.938
0.995333
0.928667
0.862
0.795333
0.728667
0.662
0.595333
0.528667
0.504
0.437333
0.370667
0.304
0.237333
0.170667
0.104
0.0373333
0.0293333
0.096
0.162667
0.229333
0.296
0.362667
0.429333
0.496
0.562667
0.629333
0.696
0.762667
0.829333
0.896
0.962667
0.970667
0.904
0.837333
0.770667
0.704
0.637333
0.570667
0.546
0.479333
0.412667
0.346
0.279333
0.212667
0.146
0.0793333
0.0126667
0.054
0.120667
0.187333
0.254
0.320667
0.387333
0.454
0.520667
0.587333
0.654
0.720667
0.787333
0.854
0.920667
0.987333
0.946
0.879333
0.812667
0.746
0.679333
0.612667
0.588
0.521333
0.454667
0.388
0.321333
0.254667
0.188
0.121333
0.0546667
0.012
0.0786667
0.145333
0.212
0.278667
0.345333
0.412
0.478667
0.545333
0.612
0.678667
0.745333
0.812
0.878667
0.945333
0.988
0.921333
0.854667
0.788
0.721333
0.654667
0.63
0.563333
0.496667
0.43
0.363333
0.296667
0.23
0.163333
0.0966667
0.03
0.0366667
0.103333
0.17
0.236667
0.303333
0.37
0.436667
0.503333
0.57
0.636667
0.703333
0.77
0.836667
0.903333
0.97
0.963333
0.896667
0.83
0.763333
0.696667
0.672
0.605333
0.538667
0.472
0.405333
0.338667
0.272
0.205333
0.138667
0.072
0.00533333
0.0613333
0.128
0.194667
0.261333
0.328
0.394667
0.461333
0.528
0.594667
0.661333
0.728
0.794667
0.861333
0.928
0.994667
0.938667
0.872
0.805333
0.738667
0.714
0.647333
0.580667
0.514
0.447333
0.380667
0.314
0.247333
0.180667
0.114
0.0473333
0.0193333
0.086
0.152667
0.219333
0.286
0.352667
0.419333
0.486
0.552667
0.619333
0.686
0.752667
0.819333
0.886
0.952667
0.980667
0.914
0.847333
0.780667
0.756
0.689333
0.622667
0.556
0.489333
0.422667
0.356
0.289333
0.222667
0.156
0.0893333
0.0226667
0.044
0.110667
0.177333
0.244
0.310667
0.377333
0.444
0.510667
0.577333
0.644
0.710667
0.777333
0.844
0.910667
0.977333
0.956
0.889333
0.822667
0.798
0.731333
0.664667
0.598
0.531333
0.464667
0.398
0.331333
0.264667
0.198
0.131333
0.0646667
0.002
0.0686667
0.135333
0.202
0.268667
0.335333
0.402
0.468667
0.535333
0.602
0.668667
0.735333
0.802
0.868667
0.935333
0.998
0.931333
0.864667
0.84
0.773333
0.706667
0.64
0.573333
0.506667
0.44
0.373333
0.306667
0.24
0.173333
0.106667
0.04
0.0266667
0.0933333
0.16
0.226667
0.293333
0.36
0.426667
0.493333
0.56
0.626667
0.693333
0.76
0.826667
0.893333
0.96
0.973333
0.906667
0.882
0.815333
0.748667
0.682
0.615333
0.548667
0.482
0.415333
0.348667
0.282
0.215333
0.148667
0.082
0.0153333
0.0513333
0.118
0.184667
0.251333
0.318
0.384667
0.451333
0.518
0.584667
0.651333
0.718
0.784667
0.851333
0.918
0.984667
0.948667
0.924
0.857333
0.790667
0.724
0.657333
0.590667
0.524
0.457333
0.390667
0.324
0.257333
0.190667
0.124
0.0573333
0.00933333
0.076
0.142667
0.209333
0.276
0.342667
0.409333
0.476
0.542667
0.609333
0.676
0.742667
0.809333
0.876
0.942667
0.990667
0.966
0.899333
0.832667
0.766
0.699333
0.632667
0.566
0.499333
0.432667
0.366
0.299333
0.232667
0.166
0.0993333
0.0326667
0.034
0.100667
0.167333
0.234
0.300667
0.367333
0.434
0.500667
0.567333
0.634
0.700667
0.767333
0.834
0.900667
0.967333
0.992
0.941333
0.874667
0.808
0.741333
0.674667
0.608
0.541333
0.474667
0.408
0.341333
0.274667
0.208
0.141333
0.0746667
0.008
0.0586667
0.125333
0.192
0.258667
0.325333
0.392
0.458667
0.525333
0.592
0.658667
0.725333
0.792
0.858667
0.925333
0.95
0.983333
0.916667
0.85
0.783333
0.716667
0.65
0.583333
0.516667
0.45
0.383333
0.316667
0.25
0.183333
0.116667
0.05
0.0166667
0.0833333
0.15
0.216667
0.283333
0.35
0.416667
0.483333
0.55
0.616667
0.683333
0.75
0.816667
0.883333
0.908
0.974667
0.958667
0.892
0.825333
0.758667
0.692
0.625333
0.558667
0.492
0.425333
0.358667
0.292
0.225333
0.158667
0.092
0.0253333
0.0413333
0.108
0.174667
0.241333
0.308
0.374667
0.441333
0.508
0.574667
0.641333
0.708
0.774667
0.841333
0.866
0.932667
0.999333
0.934
0.867333
0.800667
0.734
0.667333
0.600667
0.534
0.467333
0.400667
0.334
0.267333
0.200667
0.134
0.0673333
0.000666667
0.066
0.132667
0.199333
0.266
0.332667
0.399333
0.466
0.532667
0.599333
0.666
0.732667
0.799333
0.824
0.890667
0.957333
0.976
0.909333
0.842667
0.776
0.709333
0.642667
0.576
0.509333
0.442667
0.376
0.309333
0.242667
0.176
0.109333
0.0426667
0.024
0.0906667
0.157333
0.224
0.290667
0.357333
0.424
0.490667
0.557333
0.624
0.690667
0.757333
0.782
0.848667
0.915333
0.982
0.951333
0.884667
0.818
0.751333
0.684667
0.618
0.551333
0.484667
0.418
0.351333
0.284667
0.218
0.151333
0.0846667
0.018
0.0486667
0.115333
0.182
0.248667
0.315333
0.382
0.448667
0.515333
0.582
0.648667
0.715333
