# vtk DataFile Version 2.0
Cement component(column) 2
ASCII

DATASET STRUCTURED_POINTS
DIMENSIONS 100 100 100
ASPECT_RATIO 1 1 1
ORIGIN 0 0 0
POINT_DATA 1000000
SCALARS scalars float
LOOKUP_TABLE default
0
0
0.0674579
0.105532
0
0
0
0
0
0
0
0
0
0
0
0.0167004
0.0847557
0.130245
0
0
0
0
0
0
0
0
0
0
0
0
0
0
0
0
0
0.966278
0.0330657
0.0298244
0.0036585
0
0
0
0
0
0
0
0
0.0230135
0.123467
0.21983
0
0
0
0
0
0
0
0
0.0114541
0
0
0
0
0
0
0.84229
0.160526
0.15366
0.148565
0.0851057
0.0945493
0
0.0922136
0.00721974
0
0
0
0
0
0
0
0
0
0
0.0335315
0.100625
0.153644
0.282759
0
0
0
0.0561844
0.109342
0.104138
0.296318
0
0
0
0
0
0
0
0
0.0688588
0
0
0
0
0
0
0
0
0
0
0
0.000566306
0.104111
0.0484853
0.0322143
0
0
0
0
0
0
0
0
0
0
0
0
0
0
0
0
0.162671
0
0.13269
0
0
0
0
0
0
0
0
0
0
0
0
0
0
0
0
0
0
0.558841
0.119018
0.118999
0.00214118
0
0
0
0.841985
0.136637
0.150495
0.12724
0
0
0
0.128171
0.194122
0.734933
0
0
0
0
0
0
0
0
0
0
0
0
0
0.00978036
0
0
0
0
0.0401512
0.0273683
0
0.111352
0
0
0
0
0
0
0
0
0
0
0
0
0
0
0
0
0
0
0
0
0
0.0331034
0.0692488
0
0
0
0
0
0
0
0
0
0
0
0
0
0
0
0
0.0157722
0.163294
0.154747
0.697117
0.0309732
0.00203797
0
0
0
0
0
0
0
0
0
0
0
0
0
0
0
0
0.0230806
0.0579041
0.109785
0.306102
0.0525858
0.010437
0.163472
0.155162
0
0
0
0
0
0
0.155716
0.22178
0
0
0
0
0
0
0
0
0
0
0
0
0
0
0
0
0
0
0
0
0
0.152874
0
0.104721
0.113996
0
0
0
0
0
0
0
0
0
0
0
0
0
0
0
0
0
0
0
0.113811
0.164788
0
0
0
0
0
0
0
0
0
0
0
0.0268555
0.00631107
0
0
0
0
0.0806298
1
0.206433
0
0.130836
0
0
0
0
0
0
0
0
0
0
0
0
0
0
0
0
0
0
0.0147398
0
1
0.106481
0.131628
0
0
0
0
0
0
0
0.127367
0.861881
0
0
0
0
0
0
0
0
0
0
0
0
0
0
0
0
0
0
0
0
0
0.0347739
0.0824647
0
0.134358
0.409766
0
0
0
0
0
0
0
0
0
0
0
0
0
0
0.0259303
0.0594654
0.0760306
0
0
0
0
0
0
0
0
0
0
0
0
0.915342
0.100064
0.0445139
0.0530333
0.0571126
0.0463941
0
0
0.0268026
0.235951
0
0.113003
0
0
0
0
0
0
0
0
0
0
0
0
0
0
0
0
0
0
0
0
0.482144
0.0885641
0
0
0
0
0
0
0
0
0.0806222
0.0738021
0
0
0
0
0
0
0
0
0
0
0
0
0
0
0.828182
0.119336
0.00620588
0
0
0
0
0
0.173843
0.0942774
0
0
0.148242
0
0
0
0
0
0
0
0
0
0
0
0
0
0
0.0145357
0.0544537
0.0688714
0.263789
0.0515653
0
0
0
0
0
0
0
0
1
0.133815
0.184843
0
0
0.0470242
0
0
0
0.0926959
0.103513
0
0
0.161909
0
0
0
0
0
0
0
0
0
0
0
0
0
0
0
0
0
0
0
0
0.067526
0.180251
0
0
0
0
0
0
0
0.0664358
0.599721
0
0
0
0
0
0
0
0
0
0
0
0
0
0
0
0.0456435
0
0.190581
0
0
0
0.0961298
0
0
0.023513
0.0627148
0
0
0.082901
0
0
0
0
0
0
0
0
0
0
0
0
0
0
0.0673355
0.0183189
0.0408442
0.206296
0
0
0
0
0
0
0
0.569096
0.0114548
0
0
0
0.0211147
0.0555794
0
0
0.114308
0
0
0
0.0330995
0.71813
0
0
0
0
0
0.036496
0
0
0
0
0
0
0
0
0
0
0
0
0
0.360233
0.107792
0
0
0
0
0
0
0.0737677
0.06762
0.00389269
0
0
0
0
0
0
0
0
0
0
0
0
0
0
0
0
0.00610433
0.154214
0.259112
0
0
0.0343085
0.0773272
0.067615
0
0
0.0697159
0.111313
0.0786236
0.28211
0
0
0
0
0
0
0
0.0216817
0
0
0
0
0
0
0
0.0133383
0
0
0
0
0
0
0
0
0
0.0317069
0
0
0
0.114569
0
0
0
0.446586
0.13415
0
0
0.13086
0.00153055
0
0
0
0
0.0266591
0.0433406
0.0997122
0.0325811
0
0
0.00721743
0
0
0
0
0
0
0
0
0
0
0.0887983
0.115113
0
0
0
0.205302
0.208519
0.347605
0.00535311
0
0
0
0
0
0
0
0
0
0
0
0
0
0
0
0
0
0
0
0
0
0
0
0.0612408
0.120628
0
0
0.0179574
0.158672
0
0
0
0
0
0
0
0
0
0
0
0
0
0
0
0
0
0
0
0
0
0
0
0
0
0
0.291441
0.106424
0
0
0.0641901
0.0886064
0
0
0
0.341637
0.0809457
0
0.186626
0.617633
0
0
0
0
0
0.560295
0.232343
0.194957
0
0
0
0.0593692
0
0
0.0244038
0
0
0
0
0
0
0.475794
0.17163
0.12752
0.132238
0.186834
0.162168
0.00221098
0.69668
0
0
0
0
0
0
0
0
0
0
0
0
0
0
0
0
0
0
0
0
0
0
0
0
0
0
0
0
0
0
0
0
0
0
0
0
0
0.00161887
0.0638083
0.483769
0
0
0
0
0
0.00253349
0.144896
0.0264093
0.0313486
0.0191737
0
0
0
0
0
0
0
0.769521
0.0278472
0.0998072
0.0124912
0.166008
0
0
0
0
0.0244127
0.0669465
0
0.0885588
0.0292088
0.274877
0.163974
0
0
0
0
0
0.0042076
0
0
0
0
0.319945
0.059096
0.0820476
0.169199
0.194613
0
0.00348219
0
0
0
0
0
0.464294
0.0117677
0.473975
0
0
0
0
0
0
0
0
0
0
0
0
0
0
0
0
0.0137213
0.222716
0.32849
0
0
0
0
0
0
0
0
0
0
0
0
0
0
0
0
0
0
0
0
0.0111756
0.1077
0.253725
0
0
0
0.509042
0.0789716
0.105121
0.0939493
0.0440624
0.0515927
0.0538649
0.059828
0.00570606
0
0
0
0
0
0
0
0.177686
0.0123929
0
0
0.63437
0.243501
0.124254
0.872969
0.0806768
0.0506728
0.0357501
0
0.00461711
0
0.0320922
0
0
0
0
0
0
0
0
0
0.177686
0
0
0
0
0.110747
0.191516
0.46933
0.00323807
0.217253
0.0018792
0
0.00682313
0
0
0
0
0
0
0
0
0
0
0
0
0
0
0
0
0
0
0.133588
0
0.040829
0
0
0
0
0
0
0
0
0
0.0201588
0
0
0.0109288
0.707053
0
0
0
0
0
0
0.0724118
0
0
0.119688
0.690457
1.32315e-06
0.0786014
0
0
0
0
0
0
0.0859019
0.0597691
0
0
0
0
0
0
0
0
0
0.0480073
0.183503
0.14534
0.153076
0
0.0990533
0.184659
0.0691767
0
0
0
0
0
0
0
0
0
0
0
0
0
0
0.110891
0
0
0
0
0
0.140714
0.150585
0.196066
0.117866
0.109745
0.128317
0.223849
0.40062
3.93636e-05
0
0
0
0
0
0
0
0
0
0
0
0
0
0.0919
0.151681
0.00916642
0.178379
0.0769032
0.0717965
0
0
0
0
0
0
0
0
0
0.000647349
0
0.156722
0.172893
0.263277
0
0.0258973
0
0
0
0.292052
0.0931223
0
0
0
0.177689
0.176088
0
0
0
0
0
0
0
0
0.0132831
0
0
0
0
0
0
0
0
0
0
0.0306335
0.155199
0.100416
0.0194337
0.0195663
0.0101588
0.0476306
0
0.00759684
0.0376025
0
0
0
0
0
0.0248381
0.24422
0
0
0
0.014673
0.0889253
0
0
0
0
0
0
0
0
0
0
0
0
0.0494205
0.123024
0
0
0
0
0
0
0
0
0
0
0.102525
0
0
0.923789
0.142493
0
0
0
0
0
0
0
0
0
0
0
0
0.00721776
0.511188
0
0.171861
0.0211177
0.113223
0.220588
8.69968e-05
0
0
0
0.0227419
0.0838242
0
0
0.1746
0.186159
0.153455
0
0
0
0
0
0
0
0.0571278
0.986774
0
0
0
0
0
0
0
0
0
0
0.0171929
0
0
0
0
0
0
0.09139
0.0891257
0.0870772
0.109234
0.255533
0
0
0.793794
0.0541282
0.108839
0
0
0
0.117407
0.0894165
0
0
0
0
0
0
0
0
0
0
0
0
0
0.0740359
0
0
0
0
0
0
0
0
0.0250389
0.0496153
0.152938
0
0
0
0
0
0
0
0
0
0
0
0
0
0
0
0
0
0.156437
0.11246
0.26554
1
0.000116437
0.00450498
0
0
0
0
0.212802
0.0844537
0
0
0.171355
0
0.359165
0.0813754
0
0
0
0
0
0.0249783
0.598587
0
0
0
0
0
0
0
0
0
0
0
0
0
0
0
0.00997155
0.00650194
0.152562
0
0
0
0
0.11086
0
0
0.14642
0
0.077051
0.139702
0
0
0
0
0.0122933
0
0
0
0
0
0
0
0
0
0
0
0
0.0417264
0
0
0
0
0
0
0
0
0.0574678
0.0635073
0.0805147
0.137854
0.0876054
0
0
0
0
0
0
0
0
0
0
0
0
0
0
0.0123165
0.124027
0.168042
0.352738
0.0581215
0.0187503
0.00314479
0
0
0
0
0.165559
0.115191
0
0.126104
0.264105
0
0
0.131197
0.120153
0
0
0.0897476
0.0506133
0
0
0
0
0
0
0
0
0
0
0
0
0
0
0
0
0
0.545063
0.157888
0
0
0
0
0
0.0842741
0.0175618
0
0.111633
0
0.0523509
0.0226109
0
0
0
0
0.00789785
0.0335176
0.105264
0
0
0
0
0
0
0
0
0
0.0764745
0.0317939
0
0
0
0
0
0
0
0.00673944
0.13264
0.02965
0.0289157
0.0215004
0.192058
0
0
0
0
0
0
0
0
0
0
0
0
0
0
0
0.124318
0.143915
0.910481
0.237482
0.125168
0
0
0
0
0
0.00678509
0.063161
0.149053
0.0655582
0.944933
0
0
0
0
0.191334
0.220754
0.13632
0.672701
0.00108994
0
0
0
0
0
0
0
0
0
0
0
0
0
0
0
0.00391717
0.170369
0
0
0
0
0
0
0.10247
0.148607
0
0.0140458
0.106839
0.107978
0
0
0
0
0
0
0
0.231389
0.121024
0
0
0
0
0
0
0
0.0916328
0.140492
0
0
0
0
0
0
0
0
0
0
0.0115428
0.00681519
0
0
0
0
0
0
0
0
0
0
0
0
0
0
0
0
0
0
0.127903
0
0
0.00364096
0
0
0
0
0
0
0.107683
0.219061
0.584155
0
0
0
0
0.00328305
0
0.758485
0
0
0
0
0
0
0
0
0
0
0
0
0
0
0
0
0
0.376214
0.141557
0
0
0
0
0
0
0
0.107074
0.0318984
0
0
0.98084
0.0378439
0
0
0
0
0
0
0
0
0.00970957
0.174864
0.155144
0
0
0
0
0
0.0611429
0
0
0
0
0
0
0
0
0
0
0.00191393
0.0311587
0
0
0
0
0
0
0
0
0
0
0
0
0
0
0
0
0
0
0
0.0444865
0.00252026
0
0
0
0
0
0
0
0
0
0
0
0
0
0
0
0
0
0
0
0
0
0
0
0
0
0
0
0
0
0
0
0
0
0
0.462715
0.169301
0
0
0
0
0
0
0
0
0.12499
0.242352
0
0.0895571
0.08455
0
0
0
0
0
0
0.00396778
0
0.388318
0.34099
0.462865
0.892409
0.0512424
0
0
0
0.107618
0.142959
0
0
0
0
0
0
0
0
0
0.0360904
0.0382607
0.0458126
0.169348
0.43186
0
0
0
0
0
0
0
0
0
0
0
0
0
0
0
0
0
0.01572
0
0
0
0
0
0
0
0
0
0
0
0
0
0
0
0
0
0
0
0
0
0
0
0
0
0
0
0
0
0
0
0
0
0
0.0403007
0.133434
0
0
0
0
0
0
0
0
0
0.153158
0.00236049
0
0.0256022
0
0
0
0
0.0100741
0.0124309
0.581139
0.648725
0.0979286
0.149819
0.142943
0.0593672
0
0
0.0819546
0.0618425
0.0884982
0
0
0
0
0
0
0
0
0
0
0.0255833
0.113351
0
0
0
0.059085
0.0657603
0.00739837
0.00147729
0
0
0
0
0
0
0
0
0
0
0
0
0
0
0
0
0
0
0
0
0
0
0
0
0
0
0
0
0
0
0
0
0
0
0
0
0
0
0
0
0
0
0
0
0
0
0
0.23721
0.0668331
0
0
0
0
0
0
0
0
0
0
0
0.137012
0.0898111
0
0
0
0
0
0
0.123709
0.147056
0.237789
0.152057
0
0
0
0.113986
0.0628434
0
0.0454494
0.15883
0.0512801
0
0
0
0
0
0
0
0
0
0.00170851
0.0871443
0
0
0
0
0
0
0.104952
0.188324
0
0
0
0
0
0
0
0
0
0
0.00400516
0.0342129
0
0
0
0
0
0
0
0
0
0
0
0
0
0
0
0
0
0
0
0
0
0
0
0
0
0
0
0
0
0
0
0
0
0
0.00807019
0.115844
0
0
0
0
0
0
0
0
0
0
0
0
0.160269
0.437306
0
0
0
0
0
0.17463
0
0
0.159569
0
0
0
0
0.0924111
0
0
0
0
0
0
0
0
0
0
0
0
0
0
0.187731
0
0
0
0
0
0
0
0
0
0.168376
0.447561
0
0
0
0
0
0
0
0
0.0246899
0.0286431
0.0342943
0
0
0
0
0.0177225
0.0548559
0
0
0
0
0
0
0
0
0
0
0
0
0
0
0
0
0
0.0527062
0.0586431
0
0
0
0
0
0
0.00298601
0.0930313
0.173664
0
0
0
0
0
0
0
0
0
0
0
0
0
0.154048
0.00616751
0
0
0
0
0
0.0030085
0.195455
0
0
0
0
0
0.0896097
0.600125
0
0
0
0
0
0
0
0
0
0
0
0
0
0.0096229
0.100028
0
0
0
0
0
0
0
0
0
0
0.131007
0
0
0
0
0
3.30786e-07
0
0
0.118698
0.0215673
0.079136
0
0
0
0
0.0376835
0.0553372
0
0
0
0
0
0
0
0
0
0
0
0
0
0
0
0
0
0.0558417
0.0269012
0
0
0
0
0
0
0.0203394
0.10892
0
0
0
0
0
0
0
0
0
0
0
0
0
0
0.097582
0.0162323
0
0
0
0
0
0.00898812
0.00732956
0
0
0
0
0
0.0214373
0.0557957
0
0
0
0
0
0
0
0
0
0
0
0
0
0.0240733
0.0660957
0
0
0
0
0
0
0
0
0
0
0.0572971
0.0579213
0
0
0
0.520666
0.0704003
6.61573e-07
0
0.0470206
0.0770467
0.0122159
0
0
0
0.0643105
0.0527525
0
0.207035
0
0
0
0
0
0
0
0
0
0
0
0
0
0
0
0
0
0
0
0
0
0
0
0.00713506
0.127725
0
0
0
0
0
0
0
0
0
0
0
0
0
0
0
0.113539
0.282696
0
0
0
0
0
0.220584
0.152073
0
0
0
0
0
0.0250723
0.0337485
0.0295925
0
0
0
0
0
0
0
0
0
0
0
0
0.0557385
0.0952092
0
0
0
0
0
0
0
0
0
0
0.0745758
0.00462009
0
0
0
0.0895055
0.136943
0.169326
0.0712375
0.688025
0.0510807
0
0
0
0
0
0.0540802
0.12814
0.0558751
0
0
0
0
0
0
0
0
0
0
0
0
0
0
0
0
0
0
0
0
0
0
0
0.0299163
0.0836688
0
0
0
0
0
0
0
0
0
0
0
0
0
0
0
0
0.149113
0.00562866
0
0
0
0
0
0
0.0753382
0
0
0
0.109975
0.0593282
0
0
0
0
0
0
0
0.0196394
0.1466
0
0
0
0
0
0.145736
0.0981367
0
0
0
0
0
0
0
0
0
0.0637839
0.0293596
0
0
0
0.0133717
0
0.12648
0.134786
0
0
0
0
0
0
0
0
0
0
0
0
0
0
0
0
0
0
0
0
0
0
0
0
0
0
0
0
0
0
0
0
0
0.265958
0.189782
0
0
0
0
0
0
0
0
0
0
0
0
0
0
0
0
0
0.145938
0.194164
0
0
0
0
0.0223347
0
0.189613
0.0729374
0.143864
0.113226
0.146919
0.490466
0
0
0
0
0
0
0
0
0.0971923
0.00474513
0
0
0
0
0
0.0388803
0.114136
0
0
0
0
0
0
0
0
0.0874606
0.138564
0
0
0
0.152493
0
0.0402901
0.422787
0
0
0
0
0
0
0
0
0
0
0
0
0
0
0
0
0.12477
0
0
0
0
0
0
0
0
0
0
0
0
0
0
2.58013e-05
0.124884
0.00708412
0
0
0
0
0
0
0
0
0
0
0
0
0
0
0
0
0
0
0.0916129
0.483701
0
0
0
0.00240415
0.0100486
0.474483
0.0155298
0.00467401
0
0.00289306
0
0
0
0
0
0
0
0
0
0
0.698212
0.165527
0
0
0
0
0
3.30786e-07
0.699417
0.0650184
0
0
0
0
0
0
0
0.0511832
0.0264431
0
0
0
0.424089
0.12022
0
0
0.0903969
0.121208
0.0084195
0
0
0
0
0
0
0
0
0
0
0
0.0162618
0.115922
0.164971
0
0
0
0
0
0
0
0
0
0
0
0
0
0.0619477
0.0967093
0
0
0
0
0
0
0
0
0
0
0
0
0
0
0
0
0
0
0
0
0.1631
0.0048318
0
0
0
0.0212107
0
0.133954
0.120008
0.00267672
0
0
0
0
0
0
0
0
0
0
0
0
0
0
0
0
0
0
0
0
0
0.0593765
0.103346
0
0
0
0
0
0
0.0497483
0.0302382
0
0
0
0
0
0
0.0226797
0.120561
0.0930366
0.172155
0
0
0
0
0
0
0
0
0
0
0
0
0.0610526
0
0.0528114
0.0506897
0
0
0
0
0
0
0
0
0
0
0
0.23528
0
0
0
0
0
0
0
0
0
0
0
0
0
0
0
0
0
0
0
0
0.152619
0.735284
0
0
0
0
0
0
0.138281
0.0397426
0.211816
0
0
0
0
0
0
0
0
0
0
0.0956326
0.0133046
0
0
0
0
0
0
0
0
0
0
0.110033
0.151207
0
0
0
0
0
0.0597238
0.0308819
0
0
0
0
0
0
0.0134081
0.562301
0.175062
0
0
0
0.083378
0
0
0
0
0
0
0
0
0
0.0350941
0.0879442
0.0874314
0
0
0
0
0
0
0
0
0
0
0
0.00964176
0.118528
0
0
0
0
0
0
0
0
0
0
0
0
0
0
0
0
0
0
0
0
0
0.115123
0
0
0
0
0
0
0.0134107
0.0383173
0
0
0
0
0
0
0
0
0
0
0
1
0.230901
0
0
0
0
0
0
0
0
0
0
0
0.708989
0.109947
0
0
0
0
0.0492481
0.0049092
0
0
0
0
0
0
0.0276428
0
0
0
0
0
0.160672
0.00379114
0
0
0
0
0
0
0
0
0.00254639
0.0236588
0
0
0
0
0
0
0
0
0
0
0
0.0039089
0.121652
0
0
0
0
0
0
0
0
0
0
0
0
0
0
0
0
0
0
0
0
0
0
0.0410512
0.00235586
0
0
0
0
0
0.0127227
0
0
0
0
0
0
0
0
0
0
0
0
0.0902246
0.000937118
0
0
0
0
0
0
0
0
0
0
0
0
0.127103
0.0722325
0.0400344
0.0606427
0.038617
0
0
0
0
0
0
0
0
0
0
0
0
0
0
0
0
0
0
0
0
0
0
0
0
0
0
0
0
0
0
0
0
0
0
0
0
0
0.0763299
0
0
0
0
0
0
0
0
0
0
0
0
0
0
0
0
0
0
0
0
0
0
0
0.104339
0.00712216
0
0
0
0
0
0
0
0
0
0
0
0
0
0
0
0
0
0
0
0
0
0
0
0
0.433628
0.12858
0.0843651
0.556182
0
0
0
0
0
0.103747
0.080258
0.017319
0.0403397
0
0
0
0
0
0
0
0
0
0
0
0
0
0
0
0
0
0
0
0
0
0
0
0
0
0
0
0
0
0
0
0
0
0
0
0
0.00736132
0.0623377
0
0
0
0
0
0
0
0
0
0
0
0
0
0
0
0
0
0
0
0
0
0
0
0.0526135
0.0113096
0
0
0
0
0
0
0
0
0
0
0
0
0
0
0
0
0
0
0
0
0
0
0.0358844
0.119675
0.0755569
0
0
0.136412
0
0
0
0
0
0
0
0
0
0
0
0
0
0
0
0
0
0
0
0
0
0
0
0
0
0
0
0
0
0
0
0
0
0
0
0
0
0
0
0
0
0
0
0
0
0.040389
0.062254
0
0
0
0
0
0
0
0
0
0
0
0
0
0
0
0
0
0
0
0
0
0
0
0.0507033
0.0439645
0
0
0
0
0
0
0
0
0
0
0
0
0
0
0
0
0
0
0
0
0.0281562
0.318212
0.204616
0
0
0
0.067101
0.0058053
0
0
0
0
0
0
0
0
0
0
0
0
0
0
0
0
0
0
0
0
0
0
0
0
0
0
0
0
0
0
0
0
0
0
0
0
0
0
0
0
0
0
0
0
0
0.0349204
0.0652215
0
0
0
0
0
0
0
0
0
0
0
0
0
0
0
0
0
0
0
0
0
0
0
0.0393139
0.0348126
0
0
0
0
0
0
0
0
0
0
0
0.109795
0.108413
0
0
0
0
0
0.430258
0.223014
0.110738
0.153548
0
0
0
0.110462
3.80404e-05
0
0
0
0
0
0
0
0
0
0
0.0111759
0.0568162
0.845729
0
0
0
0
0
0
0
0
0
0
0
0
0
0
0
0
0
0
0
0
0
0
0
0
0
0
0
0
0
0
0
0
0
0.041687
0.0455622
0
0
0
0
0
0
0
0
0
0
0
0
0
0
0
0
0
0
0
0
0
0
0
0.0708541
0.0454378
0
0
0
0
0
0
0
0.117208
0.174708
0
0.0735569
0
0
0.143334
0
0
0
0
0.115569
0
0
0
0
0
0
0.104356
0
0
0
0
0
0
0
0
0
0
0.00366511
0.143579
0
0.018876
0
0
0
0
0
0
0
0
0
0
0
0
0
0
0
0
0
0
0
0
0
0
0
0
0
0
0
0
0
0
0
0
0
0
0.051211
0
0
0
0
0
0
0
0
0
0
0
0
0
0
0
0
0
0
0
0
0
0
0
0.0770213
0.180965
0
0
0
0
0
0
0.0497125
0.0546052
0.0105736
0
0.00897423
0.114694
0
0.0425729
0.0952853
0
0
0.121937
0.0663723
0
0
0
0
0
0.125784
0.889541
0
0
3.30786e-07
0
0
0
0
0
0
0
0.0903146
0
0
0.0726099
0.0025669
0
0
0
0
0
0
0
0
0
0
0
0
0
0
0
0
0
0
0
0
0
0
0
0
0
0
0
0
0
0
0
0
0
0.0723843
0.0598855
0
0
0
0
0
0
0
0
0
0
0
0
0
0
0
0
0
0
0
0
0
0
0.116103
0.00613509
0
0
0
0
0
0
0.00891171
0.170729
0.00195429
0
0
0.107719
0
0.0543171
0.123711
0.00844597
0
0
0.0865248
0.0682164
0
0
0
0
0
0.0267623
0
0.143647
0.192743
0.0267987
0.0324217
0
0
0
0
0
0.535002
0.105894
0
0.181786
4.96179e-06
0.0307429
0
0
0
0
0
0
0
0
0
0
0
0
0
0
0
0
0
0
0
0
0
0
0
0
0
0
0
0
0
0
0
0
0
1
0.0558397
0
0
0
0
0
0
0
0
0
0
0
0
0
0
0
0
0
0
0
0
0
0.111283
0.129189
0
0
0
0
0
0
0
0
0
0
0.00450498
0.054071
0
0
0.193647
0.958404
0
0
0
0.211441
0.047443
0
0
0
0
0.14703
0.440634
0.163094
0
0.156219
0
0
0
0
0
0
0
0.115429
0.179127
1
0.0276061
0
0.012246
0.00625815
0
0
0
0
0
0
0
0
0
0
0
0
0
0
0
0
0
0
0
0
0
0
0
0
0
0
0
0.676988
0.0791615
0
0
0
0.624947
0.1482
0.156436
0
0
0
0
0
0
0
0
0
0
0
0.0852671
0.122109
0
0
0
0
0
0
0.0545625
0.147142
0
0
0
0
0
0
0
0
0
0
0
0.783834
0.0858007
0
0.156814
0.219019
0
0
0
0
0.851445
0.15534
0.182245
0
0
0.141544
0.354351
0.0133141
0.0496474
0
0
0
0
0.0389689
0.107762
0
0.0709983
0.610418
0.217338
0
0.0978383
0.0212203
0.0377219
0.0431137
0
0
0
0
0
0
0
0
0
0
0
0
0
0
0
0
0
0
0
0
0
0
0
0
0
0
0
0.0664381
0.111301
0
0
0
0
0
0.662045
0.151295
0.193938
0.0858744
0.146797
0
0
0
0
0
0.172255
0.191403
0.0534957
0.82007
0.0672135
0
0.0752883
0
0
0.0574357
0.0743359
0.00963448
0
0
0
0
0
0
0
0
0
0
0
0
0.0721746
0
0.107583
0.571784
0
0
0.0185756
0
0
0.170078
0.202669
0
0
0.11483
0.00812014
0.000270583
0.201884
0
0
0
0
0.100919
0.12784
0.111987
0.17291
0
0
0
0.191018
0.111622
0
0.126781
0
0
0
0
0
0
0
0
0
0
0
0
0
0
0
0
0
0
0
0
0
0
0
0
0
0
0
0
0
0
0
0
0
0
0
0
0.0359674
0.458986
0.0257874
0.0699061
0.0655109
0.0934405
0.0424835
0.0854408
0.035024
0.365653
0
0
0.00536039
0.0221392
0.758222
0.0836171
0.018835
0.874582
0.0216529
0.190603
0.438587
0
0
0
0
0
0
0
0
0
0
0
0.113058
0.149407
0.160082
0.00677219
0.0181473
0.144009
0.120127
0.0283709
0
0
1
0.122477
0
0.110781
0
0
0
0
0
0
4.30022e-05
0.0858794
0.0398822
0.172356
0
0.0026969
0
0
0.00444941
0.107598
0.215374
0.237158
0
0
0
0
0
0
0
0
0
0
0
0
0
0
0
0
0
0
0
0
0
0
0
0
0
0
0
0
0
0
0
0
0
0
0
0
0
0
0
0
0
0.030299
0
0.00412954
0
0
0
0
0
0
0
0
0.000982435
0
0.0211746
0.13785
0.0821571
0
0
0
0
0
0.0107945
0
0
0
0
0
0
0
0.904458
0.181454
0.0879111
0.148577
0.409613
0
0
0
0
0
0.154468
0.0897149
0
0
0
0
0
0
0
0.0363812
0.0422239
0
0
0.5952
0.120089
0
0.0030482
0.117389
0.139567
0.930921
0
0
0
0
0
0
0
0
0
0
0
0
0
0
0
0
0
0
0
0
0
0
0
0
0
0
0
0
0
0.0277927
0
0.0220128
0
0.0232133
0
0
0
0
0
0
0
0
0
0
0
0
0
0
0
0
0
0
0
0
0
0
0.0466958
0
0
0
0.644007
0.0763124
0.135996
0.164184
0.174509
0.29368
0
0
0
0
0.0891978
0.0540988
0.0741911
0.0973481
0
0
0
0
0
0
0.210595
0
0
0.00304853
0
0
0
0
0
0.0151417
0.051559
0
0.115442
0.113778
0.0232606
0.0319295
0.0121236
0.139941
0
0.109019
0
0
0
0
0
0
0
0
0
0
0
0
0
0
0
0
0
0
0
0
0
0
0
0
0
0
0.306353
0.109528
0.123213
0.142852
0.143897
0.157814
0.139267
0.144725
0.269485
0
0
0
0
0
0
0
0.719646
0.0857411
0.11433
0.603615
0
0
0
0
0
0
0
0
0
0
0
0
0.0182422
0.158686
0.154766
0
0
0
0
0.018398
0
0
0
0
1.12467e-05
0.0602292
0.0609924
0.541609
0
0
0
0
0.0211035
0
0
0
0.0253895
0.00148688
0
0
0
0
0
0
0
0
0
0.0121875
0.0310142
0.0244352
0.0127204
0.11178
0
0.142918
0
0
0
0
0
0
0
0
0
0
0
0
0
0
0
0
0
0
0
0
0
0.0149171
0
0.0366885
0.461434
0.0700281
0.0916523
0
0
0
0
0
0
0
0
0.0879402
0
0
0
0
0
0
0.117637
0.143294
0.0322904
0.166945
0
0
0
0
0
0
0
0
0
0
0.64495
0.131132
0.100066
0.107573
0
0
0
0
0
0.180628
0.560802
0.0158774
0.0429099
0
0.00761933
0.0705286
0.0567083
0.0157752
0
0
0
0
0.0826966
0.168035
0.0647597
0.511618
0.00956998
0
0
0
0
0
0
0
0
0
0
0
0
0
0
0.15412
0.122459
0.0451024
0
0
0
0
0
0
0
0
0
0
0
0
0
0
0
0
0
0
0
0
0.188547
0.0900331
0.0712616
0.0663584
0.0844904
0
0
0
0
0
0
0
0
0
0
0.0986454
0.00329761
0
0
0
0
0
0.0295505
0.923071
0.0956141
0.0504777
0.0356773
0
0
0
0
0
0
0
0.563495
0.040861
0.122416
0
0
0
0
0
0
0
0
0
0.0561635
0.128738
0.147441
0.848203
0.116077
0
0
0
0
0
0
0
0.0689173
0
0.143708
0.813459
0.0104337
0.00721776
0
0
0
0
0
0
0
0
0
0
0
0
0
0.672685
0.0475482
0.157248
0
0
0.02611
0
0.00880718
0.00344249
0
0
0
0
0
0
0
0
0
0
0
0
0
0
0.153132
0.12212
0
0
0
0
0
0
0
0
0
0
0
0
0
0.147889
0.238141
0
0
0
0
0
0
0
0
0
0
0
0
0
0
0
0
0
0.134827
0
0
0
0
0
0
0
0
0
0
0
0.112089
0.0986415
0
0.0873392
0
0
0
0
0
0
0
0.266621
0.116862
0
0
0.0501346
0.0572677
0
0
0
0
0
0
0
0
0
0
0
0
0
0
0
0
0
0
0
0
0.0278592
0.210558
0.0312573
0
0
0
0
0
0
0
0
0
0
0
0
0
0.274231
0.130416
0.151671
0
0
0
0
0
0
0
0
0
0
0
0
0
0.013982
0
0
0
0
0
0
0
0
0
0
0
0
0
0
0
0
0
0.207001
0.103037
0
0
0
0
0
0
0
0
0
0
0
0.136961
0.234438
0
0
0
0
0
0
0
0
0
0.0135457
0.131299
0
0
0.156928
0.458503
0
0
0
0
0
0
0
0
0
0
0
0
0
0
0
0
0
0
0
0
0.206662
0
0
0.0783236
0
0
0
0
0
0
0
0
0
0
0
0
0
0.113775
0.100291
0.0947888
0
0
0
0
0
0
0
0
0
0
0.070303
0.0919043
0.341555
0
0
0
0
0
0
0
0
0
0
0
0
0
0
0
0
0
0.0194086
0
0
0
0
0
0
0
0
0
0
0
0
0
0.0526225
0.00719262
0
0.00316166
0.0832377
0.133906
0.027743
0.02186
0
0
0.0494248
0.0851662
0
0
0.144323
0.110131
0
0
0
0
0
0
0
0
0
0
0
0
0
0
0
0
0
0
0.0616516
0.074418
0.0973104
0.160371
0.173075
0.410637
0.00900367
0
0
0
0
0
0
0
0
0
0
0
0
0.781505
0.0987116
0.063637
0.0838566
0
0
0
0
0
0
0
0
0.139729
0.480217
0.00915319
0
0
0
0
0
0
0
0
0
0
0
0
0
0
0
0
0
0.00682379
0.0229853
0
0
0
0
0
0
0
0
0
0
0
0
0
0.0707433
0.029743
0
0.0124488
0.172546
0
0.186437
0
0
0
0.164845
0.0758073
0
0
0
0.118858
0.497361
0
0
0
0
0
0
0
0
0
0
0
0
0
0
0
0.612094
0.118772
0
0
0
0
0.11716
0.0773428
1.32315e-06
0
0
0
0
0
0
0
0
0
0
0
0.0911449
0.129201
0.00152559
0.0825815
0.0672773
0.120848
0
0
0
0
0
0
0.0808471
0
0
0
0
0
0
0
0
0
0
0
0
0
0
0
0
0
0
0
0
0
0.538941
0.151442
0
0
0
0
0
0
0
0
0
0
0
0
0.13389
0.0523691
0
0.058917
0
0
0.180091
0
0
0
0.0224908
0.0804614
0
0
0
0.0918352
0.102987
0
0.0264722
0
0
0
0
0
0
0
0
0
0
0
0
0
0.113599
0
0
0
0
0
0
0.0971969
0.097018
0.555929
0
0
0
0.010482
0.157056
0.0330128
0
0
0
0.000355264
0.0496083
0.142929
0.869179
0.0386831
0.135921
0.137668
0
0
0
0
0
0.125429
0.327714
0
0
0
0
0
0
0
0
0
0
0
0
0
0
0
0
0
0
0
0
0
0
0.146823
0
0
0
0
0
0
0
0
0
0
0
0
0.0137488
0
0
0.46217
0.0646485
0.0399252
0.313017
0
0
0
0.123955
0.0893474
0
0
0
0
0.0543846
0.0904608
0.0509639
0.116392
0
0
0
0
0
0
0
0
0
0
0.662308
0.219544
0
0
0
0
0
0
0
0.0833803
0.103346
0.127828
0
0
0
0.582416
0.146061
0.330513
0
0
0
0
0.119229
0.105056
0.0357993
0.411291
8.93123e-06
0.0505617
0.0934193
0
0
0.108697
0.160996
0
0
0
0
0
0
0
0
0
0
0
0
0
0
0
0
0
0
0
0
0
0
0
0
0.0847584
0.0337726
0
0
0
0
0
0
0.0865565
0.0624865
0
0
0.0134011
0.0348086
0
0
0
0.0370166
0.0482922
0
0
0
0
0.0885952
0.0999338
0
0
0
0
0
0.0918842
0.0933773
0.0326126
0.0196755
0
0
0
0
0
0
0
0
0
0.089735
0
0
0
0
0
0
0
0
0
0.091693
0.0711713
0.09225
0.0233505
0
0.0408911
0.0132917
0
0
0.612695
0
0
0.0221091
0
0
0
0
0.695892
0.153603
0.127616
0.107725
0.111076
0.631625
0
0
0
0
0
0
0
0
0
0
0
0
0
0
0
0
0
0
0
0
0
0
0
0
0
0.0470216
0.0685766
0
0
0
0
0.0533813
0.0580861
0.0644405
0.182022
0.0915064
0
0
0.00834441
0.0550104
0
0.0216043
0.0384622
0
0
0
0
0.0387347
0.0899064
0
0
0
0
0
0
0.116582
0.0658996
0
0
0
0
0
0
0
0
0
0
0.147424
0
0
0
0
0
0
0
0
0
0
0
0.141424
0.145891
0
0
0.280421
0.143303
0.117666
0.203364
0
0
0
0
0
0
0
0
0.0499434
0.091432
0.124593
0.0940114
0
0
0
0
0
0
0
0
0
0
0
0
0
0
0
0
0
0
0
0
0
0
0
0
0
0
0
0.130483
0.0133188
0
0.0458946
0.0440376
0.0451722
0.0463931
0.0946251
0
0.355111
0
0
0.0310569
0.0754351
0
0
0
0
0
0
0
0.235355
0.138073
0
0
0
0
0
0.260623
0.0639916
0.0339704
0
0
0
0
0
0
0
0
0
0
0.0591753
0.0721286
0
0
0
0
0
0
0
0
0
0
0
0.163669
0
0
0
0.126596
0
0.159
0.0196609
0
0
0
0
0
0
0
0.618433
0.120239
0.134639
0.583355
0
0
0
0
0
0
0.0286583
0.122452
0
0
0
0
0
0
0
0
0
0
0
0
0
0
0
0
0
0
0
0
0
0.121257
0.185625
0.0726261
0
0
0
0
0
0
0.032205
0.0486914
0.0246925
0
0
0
0
0
0
0
0.00964837
0.124175
0
0
0
0
0.0972151
0.00156197
0
0
0
0
0
0
0
0
0
0
0
0
0
0.00387682
0.143302
0
0
0
0
0
0
0
0
0
0
0.117043
0.372722
0
0
0
0.135267
0.337935
0
0
0
0
0
0
0
0
0
0.0402818
0
0
0
0
0
0
0
0
0.330494
0.109282
0.173557
0
0
0
0
0
0
0
0
0
0
0
0
0
0
0
0
0
0
0
0
0.051813
1
0
0
0
0
0
0
0
0
0
0
0
0
0
0
0
0
0
0.00258543
0.137289
0
0
0.0958377
0.0756177
0
0
0
0
0.0072204
0.526674
0.000957295
0
0
0
0.0569038
0
0
0
0
0.0150994
0.205978
0
0
0
0
0
0
0
0
0
0
0.0802623
0.29154
0
0
0
0.106592
0
0
0
0
0
0
0
0
0
0
0
0
0
0
0
0
0
0
0
0
0.0733753
0.0939142
0
0
0
0
0
0.0483596
0.158039
0
0
0
0
0
0
0
0
0
0
0
0
0
0.0666405
0.0159327
0
0
0
0
0
0
0
0
0
0
0
0
0
0
0
0
0
0
0.0251523
0.0448106
0.065286
0.00336013
0.284217
0
0
0.578288
0.071732
0.0937395
0.0644435
0.0484642
0.104304
0.0397764
0.00733519
0
0
0
0
0
0
0.00906387
0.135228
0
0
0
0
0
0
0
0
0
0
0.0970524
0
0
0
0.525158
0.0181046
0
0
0
0
0
0
0
0.845143
0.197555
0
0
0
0
0
0
0
0
0
0.00821243
0.0760762
0
0
0
0.745198
0.125876
0.091475
0.100472
0.129405
0
0
0
0
0
0
0
0
0
0
0
0
0.0966825
0
0.0367222
0.0398244
0
0
0
0
0
0
0
0
0
0.000656942
0.559912
0
0
0
0
0
0
0
0
0.0371361
0
0
0
0
0.145979
0.0574824
0.0686597
0.142624
0.183315
0.0214462
0
0
0
0
0
0
0
0
0
0.71287
0.135611
0
0
0
0
0
0
0
0
0
0.0843789
0.0250488
0
0.135858
0.0171711
0.0404386
0
0
0
0
0
0
0.0439569
0.144472
0.181434
0
0
0.019565
0.0426704
0
0
0
0
0
0
0.011466
0
0.00263604
0.117395
0.11625
0
0
0
0.0420079
0
0
0
0
0
0
0
0
0
0
0
0
0.1707
0
0.0711521
0
0
0
0
0
0
0
0
0
0.101406
0.0787218
0.0767236
0.0594542
0.631953
0.00539413
0
0
0
0
0
0
0
0
0
0.0713149
0.0971671
0.0719847
0.0679309
0.127547
0
0
0
0
0
0
0
0
0
0
0
0.00124938
0.0136403
0
0
0
0
0
0
0
0
0
0.0256138
0.00714465
0
0.0402372
0.22232
0
0
0
0
0
0
0
0.0136965
0
0
0
0
0
0
0
0
0
0
0
0
0
0
0.101205
0
0
0
0.0288621
0.0213112
0.0154021
0
0
0
0
0
0
0
0
0
0
0
0
0.0767183
0.133767
0
0
0
0
0
0
0
0
0
0.354207
0.0870934
0.0648007
0.048142
0.0725533
0.0952684
0.141894
0.00344712
0
0
0
0
0
0
0.00131752
0.0923529
0.128084
0.12841
0.080307
0.0732966
0.18341
0
0
0
0
0
0
0
0
0
0
0
0
0
0.075323
0
0
0
0
0
0
0
0
0.12282
0
0
0
0
0
0
0
0
0
0
0
0
0
0
0
0
0
0
0
0
0
0
0
0
0
0
0.366747
0.0695108
0.0411591
0.0212848
0.0189279
0.00810327
0
0
0
0
0
0
0
0
0
0
0
0
0
0
0
0
0
0
0
0
0
0
0
0
0.0307694
0.0767279
0.0535103
0.0506278
0.0546221
0.102314
0.244243
0.000266283
0
0
0
0
0
0
0
0.177483
0.105655
0.594329
0.139517
0.136444
0.573915
0
0
0
0
0
0
0
0
0
0
0
0
0
0.00557408
0.114282
0
0
0
0
0
0
0.14177
0.495538
0
0
0
0
0
0
0
0
0
0
0
0
0
0
0
0
0
0
0
0
0
0
0.0130376
0.0589772
0.172679
0
0
0
0.00270186
0.0361913
0
0
0
0
0
0
0.0304323
0.235555
0.916456
0
0
0
0
0
0
0
0
0
0
0
0
0
0
0
0
0
0.157743
0.139972
0.128173
0.0643062
0.0766925
0.103129
0.621289
0
0
0
0
0
0
0
0
0
0
0
0
0
0
3.30786e-07
0
0
0
0
0
0
0
0
0
0
0
0
0.0155271
0.184559
0
0
0
0
0
0
0.0419745
0
0
0
0
0
0.0580401
0.0532308
0.0171533
0
0
0
0
0
0
0
0
0
0
0
0
0
0
0
0.59778
0.174637
0.116218
0.0141199
0
0
0
0
0
0
0
0
0
0
0.0906232
0
0.0403265
0.377077
0
0
0
0
0
0
0
0
0
0
0
0
0
0
0
0
0.0521875
0.685836
0.165694
0.160052
0.102107
0.0989679
0
0
0
0.0288125
0.00399358
0
0
0
0
0
0
0
0
0.110578
0.0246039
0.111241
0.975007
0.171932
0.17848
0.0105736
0
0
0
0
0
0
0
0
0
0.0317717
0.0336625
0
0
0
0
0.0857719
0.140315
0
0
0
0
0
0.416463
0.038013
0.0912213
0
0
0
0
0
0
0
0
0
0
0
0
0
0
0
0
0
0
0.0363676
0
0
0
0
0
0
0
0
0
0.00698753
0.145157
0
0.078445
0.0803705
0
0
0
0
0
0
0
0
0
0
0
0
0
0
0
0
0.0183289
0.167944
0.0306973
0.224666
0.890707
0.0383398
0
0
0
0.014542
0.0509745
0
0
0
0
0
0
0
0
0
0.0519976
0.0596047
0.0331765
0.0555433
0.0442751
0
0
0
0
0
0
0
0
0
0
0
0
0.164254
0.140305
0
0.0688426
0.117422
0
0
0
0
0
0
0
0.0336688
0
0
0.0520357
0
0
0.048653
0
0
0
0
0
0
0
0
0.0117783
0
0
0
0
0
0
0
0
0
0
0
0
0
0
0
0.92046
0.0296179
0.0730158
0.0826397
0
0
0
0
0
0
0
0
0
0
0
0
0
0
0
0.00902881
0
0.0129281
0.551607
0
0
0
0
0
0
0
0
0
0
0
0
0
0
0
0
0
0.0415339
0.0698601
0
0
0.346253
0
0
0
0
0
0
0
0
0
0
0
0
0
0.543926
0.0144173
0.0419698
0
0
0
0
0
0
0
0
0.130926
0
0
0.0862056
0.0678641
0.0429576
0.100219
0
0
0
0
0
0
0
0.0172025
0.121935
0.121495
0.0196375
0.133449
0
0
0
0
0
0
0
0
0
0
0
0
0
3.30786e-07
0.237214
0.0382432
0
0
0
0
0
0
0
0
0
0
0
0
0
0
0
0
0
0
0
0
0
0
0
0
0
0
0
0
0
0
0
0
0
0
0
0
0.0318729
0.0385945
0.129164
0.136584
0.0068185
0
0.0311227
0
0
0
0
0
0
0
0
0
0.101751
0.119829
0
0
0
0
0
0
0
0
0
0
0
0
0
0
0
0.126165
0
0.0995445
0.376318
0
0
0
0
0
0.00873044
0.0623919
0.0982445
0.0991155
0.0140564
0.159978
0.154631
0.0953534
0.407867
0
0
0
0
0
0
0
0
0
0
0
0
0
0.0135599
0.67165
0.115813
0
0
0
0
0
0
0
0.00489729
0.0439668
0
0
0
0
0
0
0
0
0
0
0
0
0
0
0
0
0
0
0
0
0
0
0
0
0
0
0.137213
0
0.129485
0.498236
0
0
0
0
0
0
0
0
0
0
0.0638629
0
0.0839794
0
0
0
0
0
0
0
0
0
0
0
0
0
0.0162886
0.226514
0
0
0.0816427
0
0
0
0
0
0.0968625
0.0653855
0.056754
0.0171559
0
0
0.174574
0
0.0362495
0
0
0
0
0
0
0
0
0
0
0
0
0
0.013684
0.0992848
0.152745
0
0
0
0
0
0
0
0.205244
0
0.105295
0
0
0
0
0
0
0
0
0
0
0
0
0
0
0
0
0
0
0
0
0
0
0
0
0.494359
0.142543
0
0
0.0497999
0
0
0
0
0
0
0
0
0
0
0.0446866
0.0631769
0.0602944
0
0
0
0
0
0
0
0
0
0
0
0
0
0
0
0.103645
0
0.0900284
0
0
0
0
0
0
0
0
0.0312702
0
0
0.730772
0.0809262
0.0686081
0
0
0
0
0
0
0
0
0
0
0
0
0
0.617476
0
0
0
0
0
0
0
0
0.0417178
0
0
0.034626
0.0208901
0
0
0
0
0
0
0
0
0
0
0
0
0
0
0
0
0
0
0
0
0
0
0
0.0504396
0
0
0
0.116063
0.00752572
0
0
0
0
0
0
0
0
0
0.044414
0.00882769
0.0100731
0
0
0
0
0
0
0
0
0
0
0
0
0
0
0
0
0.0213542
0
0
0
0
0
0
0
0
0
0
0
0
0
0
0.10316
0
0
0
0
0
0
0
0
0
0
0
0
0
0
0
0
0
0
0
0
0
0
0.402521
0.0932788
0
0.0612801
0.0309897
0.00183619
0.157966
0
0
0
0
0
0
0
0
0
0
0
0
0
0
0
0
0
0
0
0
0
0.11854
0
0
0.0851113
0.119561
0.0098184
0
0
0
0
0
0
0
0
0
0
0
0
0
0
0
0
0
0
0
0
0
0
0
0
0
0
0
0
0.0238983
0
0
0
0
0
0
0
0
0
0
0
0
0
0.00236082
0.0619735
0
0
0
0
0
0
0
0.223306
0
0
0
0
0.00267738
0.0690712
0
0
0
0
0
0
0
0
0
0.670917
0.149842
0.105295
0
0.397611
0.174082
0.0735206
0.851736
0
0
0
0
0
0
0
0.319681
0
0
0
0
0
0
0
0
0
0
0.0369849
0.122946
0
0.0662975
0.148261
0.123637
0.00389765
0
0
0
0
0
0
0
0
0
0
0
0
0
0
0
0
0
0
0
0
0
0
0
0
0
0
0
0
0
0
0
0
0
0
0
0
0
0
0
0
0
0
0
0
0
0
0
0
0.0485475
0.0876111
0.0313853
0.120933
0
0
0
0.324278
0.111873
0
0
0
0
0
0
0
0
0
0
0
0
0
0
0
0.0511263
0.0927412
0.146524
0.152075
0.0147445
0
0
0
0.0350253
0.11519
0.16879
0.0242903
0
0
0
0
0
0
0
0
0.0626992
0.0738077
0
0
0.0958698
1
0.219526
0.106075
0
0
0
0
0
0
0
0
0
0
0
0
0
0
0
0
0
0
0
0
0
0
0
0
0
0
0
0
0
0
0
0
0
0
0
0
0
0
0
0
0
0
0
0
0.0845563
0.151267
0.153144
0.401555
0.804239
0.0652459
0.138139
0.127734
0
0
0
0.0137399
0.052733
0
0
0
0
0
0
0
0.099132
0
0
0
0
0
0
0
0
0.00905395
0.1154
0.104761
0.584827
0
0
0
0
0.0392637
0.0285631
0.0831693
0
0
0
0
0
0
0
0
0.0057484
0.0644845
0
0.041175
0.0317069
0
0
0.00813966
0
0
0
0
0
0
0
0
0
0
0
0
0
0
0
0
0
0
0
0
0
0
0
0
0
0
0
0
0
0
0
0
0
0
0
0
0
0
0
0.0142949
0.0223731
0
0
0
0.0450428
0.0786286
0.105987
0.154178
0.0164596
0
0.259232
0.685823
0
0
0
0.0105441
0.194824
0
0
0
0
0
0
0.0215415
0.119252
0.0462132
0.0490841
0
0
0
0
0
0
0.393739
0.0450055
0.11279
0.21177
0
0
0
0.011824
0.152715
0.0963398
0.0416801
0.0343148
0
0
0
0
0
0
0
0.483996
0.115306
0.0861007
0.530519
0
0
0
0
0
0
0
0
0
0
0
0
0
0
0
0
0
0
0
0
0
0
0
0
0
0
0.398842
0
0
0
0
0
0
0
0
0
0
0
0
0
0
0
0
0
0.137446
0.162428
0
0
0.0930757
0.0712815
0.0613774
0.0350624
0
0
0
0
0
0
0
0
0
0
0
0
0
0
0
0
0
0.132911
0
0
0
0
0
0
0
0
0
0
0.00542886
0
0
0
0
0.245076
0.0307003
0
0.0752016
0.396916
0
0
0
0
0
0
0.0170914
0.143304
0.132771
0.0173398
0
0
0
0
0
0
0
0
0
0.0267064
0
0
0
0
0
0
0
0
0
0
0
0
0
0.0874807
0.0853839
0.0233906
0.0587195
0.164305
0
0
0
0
0
0
0
0
0
0
0
0
0
0
0
0
0.482515
0.0198518
0
0
0
0.11973
0.111249
0.0850647
0
0
0
0
0
0
0
0
0
0
0
0
0
0
0
0
0.00295591
0.00524859
0
0
0
0
0.158165
0.0403377
0
0
0
0
0.00805531
0.167299
1
0
0
0
0.038349
0
0
0.104306
0
0
0
0
0
0
0
0
0.149846
0.15607
0.246863
0
0
0
0
0
0
0.0250805
0.0653773
0.111796
0
0
0
0
0
0
0
0
0
0
0
0
0
0
0.0702669
0.189995
0.118288
0.126385
0.0796325
0.059095
0.135864
0
0
0
0
0
0
0
0
0
0
0
0
0.0363203
0.162052
0
0
0
0
0.0739023
0.516044
0.119173
0
0
0
0
0
0
0
0
0
0
0
0
0
0
0
0
0
0
0.677312
0.095542
0.0989587
0.102746
0.0825226
0.0801644
0.0901876
0.0358926
0
0
0.0451295
0.148924
0.236193
0
0
0
0.0301823
0.0753551
0
0.0572975
0
0
0
0
0
0
0
0
0
0.0726595
1
0
0
0
0
0
3.30786e-07
0.0842612
0.044938
0.117148
0
0
0
0
0
0
0
0
0
0
0
0.0224882
0.154625
0.210781
0.188587
1
0
0.0197721
0.0848454
0.041735
0
0
0
0
0
0
0
0
0
0