# vtk DataFile Version 2.0
ELLIPSOID 20.000000 20.000000 5.000000

ASCII

DATASET STRUCTURED_POINTS
DIMENSIONS 43 43 17
ORIGIN -23.579200 -23.476100 -9.583660
SPACING 1.141612 1.141612 1.141611
POINT_DATA 31433
SCALARS scalars double
LOOKUP_TABLE default
-7.370443344116210660e-02
1.339058876037597656e-01
2.233887672424316462e-01
-2.117011070251464955e-01
-1.934340476989746260e-01
-9.505367279052734722e-03
-6.323537826538086493e-02
-1.235693931579589927e-01
2.492227554321289201e-02
3.320443153381347767e-01
-3.680235862731933705e-01
-6.726741790771484375e-03
6.886453628540038785e-02
-1.539450645446777399e-01
-4.034758567810058927e-01
2.263268470764160378e-01
2.589273452758789062e-02
-1.799735069274902566e-01
-8.209218978881836770e-02
6.309137344360352118e-02
-1.649312973022460868e-02
-5.854101181030273854e-02
8.362741470336915173e-02
-4.089331626892089844e-01
2.920694351196289132e-02
-1.021475791931152344e-01
3.811829566955566850e-01
9.775323867797852673e-02
-3.495070457458496205e-01
-2.232932090759277566e-01
9.807443618774414062e-02
7.065057754516601562e-02
-2.651350975036620983e-01
6.552209854125977395e-02
1.218018531799316406e-01
-2.027411460876464844e-01
-2.301772117614746260e-01
2.517983436584472767e-01
-6.013479232788086076e-02
1.650780677795410378e-01
-1.571333885192871260e-01
2.303552627563476562e-02
-3.602355003356934038e-01
-1.383917808532715010e-01
4.149637222290039618e-02
2.667336463928222656e-01
-2.910002708435058816e-01
-4.256506919860840177e-01
-1.467879295349121260e-01
7.039270401000977118e-02
-1.649291038513183705e-01
-9.198665618896484375e-03
3.655137062072754128e-01
-7.848730087280274270e-02
3.054780006408691628e-01
-4.015357017517089955e-01
-1.340987205505371205e-01
1.075936317443847712e-01
-1.922789573669433649e-01
2.848381996154785156e-01
4.187479019165039201e-02
1.161355018615722740e-01
2.293000221252441406e-01
-6.257696151733398160e-02
-1.906576156616211076e-02
-1.653616905212402510e-01
-1.422850608825683705e-01
4.371881484985351562e-02
-2.942037582397460938e-02
-4.939794540405273438e-02
-1.953420639038086146e-02
9.122552871704102395e-02
-3.016890525817871316e-01
3.515267372131347656e-01
-1.149474143981933649e-01
-3.255681991577148715e-02
-3.483717918395996538e-01
1.249123573303222712e-01
5.897531509399414618e-02
-4.012823104858398438e-02
1.180314064025878990e-01
-2.417410850524902566e-01
1.897339820861816406e-01
-2.439887046813964955e-01
1.850205421447753962e-01
-6.093358993530273438e-02
-2.351714134216308649e-01
-1.566382408142089899e-01
1.400956153869628851e-01
-2.451651573181152510e-01
7.175912857055664895e-02
3.094231605529785267e-01
-3.292433738708496205e-01
2.930642127990722989e-01
-1.974391937255859548e-03
-1.583045005798340010e-01
-5.354964256286621760e-01
4.125452041625976562e-02
-1.688719749450683649e-01
-2.723212242126464844e-01
-1.911635398864746094e-01
8.690576553344726840e-02
5.856637954711914340e-02
5.487298965454101562e-02
-8.744716644287109375e-03
1.175179481506347656e-01
-2.321593284606933705e-01
3.107781410217285156e-01
-1.007399559020996094e-01
2.059106826782226840e-02
2.464509010314941406e-01
3.828942298889160267e-01
-1.796492576599121316e-01
-3.163748741149902677e-01
-1.810293197631835868e-02
-2.412787437438964899e-01
2.420273780822753962e-01
1.941201210021972767e-01
-1.383208274841308538e-01
3.257592201232910600e-01
-3.482100486755371205e-01
2.395760536193847767e-01
-2.670278549194336076e-02
1.715081214904785323e-01
1.371384620666503962e-01
-4.925070762634277677e-01
4.251194000244140452e-03
-1.653203964233398646e-02
-2.144270896911621149e-01
-5.146292686462402566e-01
4.204111099243164340e-02
4.913873672485351979e-02
8.459329605102539062e-02
-1.392905235290527455e-01
-2.258330345153808649e-01
5.602045059204101979e-02
1.216996192932128934e-01
1.210091590881347684e-01
4.881287574768066739e-01
-1.083868980407714927e-01
1.843918800354004128e-01
1.537697792053222823e-01
7.142648696899414618e-02
-1.565833091735839844e-01
-2.398299217224121316e-01
-3.535086631774902455e-01
1.156015396118164132e-02
1.989312171936035156e-01
1.365342140197753906e-01
8.667383193969727118e-02
1.960297584533691462e-01
2.456566810607910267e-01
-1.990157127380371149e-01
-3.818273544311523438e-02
-2.876646995544433483e-01
-1.289069175720214955e-01
4.102029800415039201e-02
-4.057836532592773438e-02
2.479767799377441406e-01
-3.725957870483398438e-02
-2.558577537536620983e-01
-2.330130577087402566e-01
-1.095458030700683649e-01
8.098697662353515972e-03
-2.149868011474609548e-03
7.201318740844726840e-02
-2.727324485778808705e-01
9.466791152954101562e-02
2.896439552307129017e-01
-2.379996299743652455e-01
-1.540831565856933816e-01
1.099480628967285240e-01
-9.297628402709962048e-02
5.244484901428222434e-01
3.339020729064941517e-01
1.414391517639160267e-01
-6.251058578491211493e-02
2.468575477600097878e-01
7.872323989868164340e-02
-3.233588218688965288e-01
2.685410499572754017e-01
-1.832724571228027399e-01
1.678803443908691573e-01
3.054141998291015625e-03
-1.232137680053711076e-02
-7.844152450561524270e-02
-1.111266136169433705e-01
-1.918219566345215066e-01
-2.175978660583496316e-01
4.885034561157226840e-02
-7.079763412475585660e-02
-2.048711776733398715e-02
1.402115821838378906e-01
-1.138968467712402344e-01
-2.363271713256836007e-02
4.558658599853515972e-03
1.486069679260254017e-01
3.208168983459472878e-01
1.178681373596191517e-01
-2.918462753295898715e-02
9.508829116821289340e-02
4.049158096313476562e-02
-1.587950706481933705e-01
-2.342169761657715010e-01
6.715555191040038785e-02
-4.673727989196777566e-01
3.387765884399414340e-02
-1.230383872985839899e-01
3.523087501525878906e-01
2.847237586975097656e-01
-1.661367416381836007e-02
-4.081488609313965177e-01
3.804788589477539618e-02
-2.157187461853027344e-01
1.772309303283691462e-01
-2.020483970642089899e-01
1.187295913696289132e-02
1.187996864318847656e-01
-9.708852767944337048e-02
-2.172369956970214844e-01
1.612839698791503906e-01
-2.422094345092773438e-02
2.479279518127441573e-01
-3.662146568298340066e-01
-4.262190818786621427e-01
4.271936416625976562e-02
9.978036880493164340e-02
-1.614813804626464844e-01
-6.313619613647461493e-02
2.071206092834472767e-01
-5.403127670288086076e-02
2.844628334045410378e-01
-6.196737289428710938e-02
-2.435172080993652510e-01
7.399301528930664340e-02
-1.408820152282714844e-01
6.478738784790039062e-02
-4.216940879821777788e-01
-2.286467552185058594e-01
4.998407363891602118e-02
-3.953719139099121094e-01
1.600899696350097656e-01
-2.744505882263183483e-01
-5.543889999389648576e-02
4.505472183227539340e-02
-1.066503524780273472e-02
2.408151626586914340e-02
2.303490638732910156e-01
-1.264327049255371260e-01
-4.645910263061523576e-02
1.544495582580566462e-01
-5.152034759521484548e-03
-2.233419418334961146e-02
-5.979223251342773854e-02
4.153537750244140798e-03
-7.444219589233398715e-02
-3.551497459411621094e-01
4.368355751037598100e-01
-1.393065452575683594e-01
-4.900214195251464955e-01
1.626206398010253962e-01
3.309243202209473100e-01
-1.884306907653808816e-01
2.356102943420410323e-01
1.847696304321289062e-02
1.099740028381347712e-01
-5.571889877319335938e-02
-1.004705429077148472e-02
-1.000807762145996122e-01
6.148462295532226840e-02
-2.536711692810058594e-01
-3.394934654235839955e-01
9.444742202758789340e-02
7.295618057250977118e-02
3.052124977111816406e-01
-6.522893905639648438e-02
-1.104384422302246149e-01
3.188867568969726979e-02
-9.156789779663086770e-02
-9.975347518920898993e-02
1.727616310119629017e-01
2.578210830688476562e-02
2.434876441955566573e-01
2.444329261779785156e-01
3.154764175415038924e-02
-5.786352157592773715e-02
1.978791236877441573e-01
2.548302650451660378e-01
1.534195899963378962e-01
2.684517860412597989e-01
5.910654067993164479e-02
2.189385414123535267e-01
2.258774757385254017e-01
9.222803115844727118e-02
1.146698951721191462e-01
2.425775527954101771e-02
-6.357870101928711493e-02
1.009652137756347767e-01
5.206918716430664062e-02
-4.171209335327148715e-02
-2.744894027709961215e-02
-2.178366661071777510e-01
-2.411955833435058816e-01
-2.914710044860839844e-01
-1.782332420349121149e-01
-1.766776084899902566e-01
1.223755836486816462e-01
1.624810218811035267e-01
-2.284316062927246316e-01
-2.880576133728027233e-01
-1.697173118591308594e-01
-1.923560142517090066e-01
3.094559669494629239e-01
-6.447668075561523160e-02
-2.997426986694336215e-02
-6.848211288452148160e-02
-7.707052230834961215e-02
1.815651893615722878e-01
2.910470962524414062e-02
2.216027259826660323e-01
-1.005110740661621094e-01
1.375679969787597656e-01
9.501962661743164340e-02
-2.346014976501464844e-01
3.266343116760254128e-01
9.103174209594727673e-02
5.527048110961914340e-02
2.504052162170410378e-01
2.918656349182128795e-01
-7.054357528686523715e-02
1.973572731018066462e-01
-3.587713241577148576e-02
-1.173171043395996177e-01
1.403420448303222823e-01
2.087800025939941517e-01
-4.059485435485840066e-01
-1.341390609741210938e-02
-1.888113975524902399e-01
-2.229613304138183816e-01
2.769098281860351771e-02
2.910752296447753906e-01
-1.705039024353027510e-01
-2.103667259216308594e-01
-2.474585533142089899e-01
-1.163496971130371094e-01
8.276453018188477395e-02
-6.593618392944336493e-02
-1.438971519470214899e-01
-1.481886863708496149e-01
5.849390029907226840e-02
9.783029556274414062e-02
-1.741248130798339899e-01
8.305826187133789895e-02
-1.558157920837402455e-01
-3.156728744506836354e-02
1.493584632873535267e-01
-1.351088523864746038e-01
-7.266454696655273715e-02
2.333710670471191573e-01
-8.594732284545898715e-02
-1.151900291442871094e-01
-2.045523643493652455e-01
-2.198546409606933760e-01
2.074578285217285323e-01
2.303147315979003906e-01
-6.397924423217773993e-02
-1.037444114685058677e-01
3.170739173889160489e-01
-1.109457015991210938e-02
-1.634451866149902455e-01
-3.307982444763183927e-01
-4.695990562438965288e-01
-1.519179344177246094e-01
-2.154501914978027566e-01
-2.135161399841308816e-01
-6.506109237670898438e-02
-1.046553611755371149e-01
2.675057411193847989e-01
-2.643980979919433594e-01
-1.818121910095215066e-01
4.181931495666504350e-01
1.729226112365722656e-01
-3.959441184997558594e-01
-3.323523521423339955e-01
-9.587240219116210938e-02
-2.116995811462402399e-01
2.793457984924316295e-01
1.708184242248535212e-01
-1.593520164489746205e-01
2.011391639709472767e-01
4.897165298461914062e-02
1.520013809204101562e-02
-8.474569320678711215e-02
9.893884658813477395e-02
2.004334449768066517e-01
8.829278945922852673e-02
1.544656753540039201e-02
-3.080053329467773507e-02
-3.787688255310058816e-01
7.759637832641602673e-02
2.287247657775879073e-01
9.942102432250976562e-02
-1.135158538818359332e-03
7.061090469360352395e-02
4.258890151977539479e-02
-2.228964805603027566e-01
2.208344459533691517e-01
-4.516363143920898438e-02
3.445389747619629350e-01
2.897469520568847767e-01
1.746399879455566573e-01
1.777276992797851771e-02
-3.779250144958496427e-01
-2.751486778259277233e-01
1.477814674377441462e-01
3.469201087951660489e-01
1.626969337463378962e-01
1.699166297912597656e-01
-1.722411155700683816e-01
-1.702216148376465010e-01
-1.460951805114746038e-01
-8.755712509155273715e-02
1.020722389221191406e-01
-4.615240097045898715e-02
-2.168013572692871205e-01
2.399300575256347878e-01
-3.417784690856933705e-01
2.066277503967285378e-01
2.380784034729004073e-01
2.398781776428222656e-01
-1.629323959350586007e-02
7.561883926391602118e-02
-4.939558982849121538e-01
3.997872352600098100e-01
-2.339720726013183594e-01
4.832086563110352118e-02
2.745957374572753906e-01
-1.928427696228027510e-01
-3.073149681091308927e-01
2.122338294982910323e-01
-1.687666893005371205e-01
-2.505118370056152455e-01
-1.488219261169433649e-01
-1.451422691345214955e-01
6.345682144165039340e-02
-8.571996688842774270e-02
1.290070533752441517e-01
6.369256973266601562e-02
-3.412337303161621094e-01
1.890328407287597823e-01
-3.863280296325684038e-01
1.262383460998535156e-01
1.046616554260254017e-01
2.612465858459472878e-01
-2.073271751403808760e-01
-7.000494003295898438e-02
8.864297866821289895e-02
-1.815787315368652399e-01
-2.464903831481933816e-01
3.624627113342285267e-01
4.982102394104004350e-01
-5.194311141967773715e-02
1.836823463439941628e-01
1.111413002014160212e-01
-1.791365623474121260e-01
1.376534461975097712e-01
-2.930898666381836007e-02
6.353082656860352395e-02
-2.558974266052246316e-01
-1.252890586853027399e-01
-3.979643821716308816e-01
1.071312904357910184e-01
1.554276466369629017e-01
4.672937393188476840e-02
1.652161598205566517e-01
-7.055730819702148160e-02
-5.766134262084961215e-02
-5.879125595092773993e-02
-5.226736068725586215e-02
2.179650306701660378e-01
1.923356056213378906e-01
-1.543509483337402455e-01
3.708505630493164062e-02
6.019830703735351562e-02
-2.070815086364746205e-01
-3.524497032165527788e-01
-2.792265892028808483e-01
1.436425209045410212e-01
3.158731460571289479e-02
2.344124794006347823e-01
-1.137022972106933594e-01
-4.420232772827148438e-02
-4.157924652099609895e-03
-5.062644004821778010e-01
2.115793228149414132e-02
-2.158362388610839955e-01
-2.268172264099121149e-01
-8.698034286499023438e-02
-1.871459007263183705e-01
1.162407875061035184e-01
4.511094093322753906e-01
-2.023534774780273715e-02
3.488862037658691517e-01
2.395287513732910212e-01
3.171219825744628906e-01
3.814705848693847878e-01
1.167542457580566517e-01
2.415276527404785212e-01
5.872049331665039201e-02
-1.943625450134277566e-01
3.958225250244140625e-03
-1.902625083923339955e-01
-3.659505844116211354e-02
-2.602347373962402566e-01
9.799814224243164062e-02
3.165826797485351424e-02
-8.132467269897461493e-02
7.135400772094727118e-02
8.637399673461915173e-02
3.947899818420410600e-01
-1.879683494567871149e-01
8.790369033813477673e-02
5.658578872680664062e-02
-1.336736679077148507e-02
-2.690260887145995983e-01
7.691431045532226562e-02
2.961335182189941406e-01
-1.053137779235839844e-01
-3.699789047241210799e-02
-7.411413192749023715e-02
2.925171852111816406e-01
-1.935492515563964899e-01
-2.043837547302246316e-01
-4.776816368103027344e-01
-6.676321029663086215e-02
-1.905737876892089899e-01
1.163163185119628906e-01
-4.628820419311523854e-02
1.057923316955566434e-01
1.911126136779785212e-01
-1.873976707458496205e-01
3.075661659240722656e-01
-5.023161888122559260e-01
3.900995254516601701e-02
-2.280257225036621260e-01
7.138147354125977395e-02
-3.588771820068359722e-03
2.406182289123535156e-01
8.193216323852539618e-02
3.326577186584472878e-01
2.894745826721191739e-01
-3.165625572204590066e-01
-1.700240135192871149e-01
-2.110509872436523715e-02
6.437387466430664895e-02
5.496759414672851979e-02
-2.963942527770996316e-01
-1.024069786071777344e-01
-1.913908958435058816e-01
-1.572913169860840066e-01
-2.096785545349121316e-01
1.762520790100097767e-01
-5.903197288513183372e-01
-2.658392906188964955e-01
-2.223769187927246149e-01
-2.976279258728027344e-01
1.550873756408691628e-01
1.682367324829101701e-02
1.530106544494629073e-01
-3.654699325561523715e-02
-6.766958236694335660e-02
-2.180242538452148438e-02
3.984165191650390452e-03
2.469948768615722878e-01
-1.710906028747558594e-01
-9.421758651733398715e-02
2.180436134338379073e-01
4.049768447875976701e-02
-6.767568588256836493e-02
-1.129218101501464899e-01
-1.173110008239746094e-01
4.314614295959472989e-01
1.300751686096191517e-01
-5.904150962829589622e-01
2.854203224182129128e-01
1.073861122131347656e-01
-9.033803939819336215e-02
-3.919744491577148438e-02
1.137375831604003906e-01
-4.422826766967773854e-02
-2.414153099060058760e-01
2.282311439514160267e-01
2.551407814025878906e-01
6.411828994750977395e-02
1.643433570861816406e-01
9.937067031860352673e-02
1.971299171447754017e-01
3.199257850646972656e-01
1.443796157836914167e-02
2.617211341857910156e-01
2.272049903869629017e-01
1.069421768188476632e-02
-2.036314964294433649e-01
2.027825355529785378e-01
2.328660011291504017e-01
-1.760764122009277344e-01
-2.365016937255859462e-03
1.005487442016601667e-02
-9.838705062866211215e-02
4.711389541625976562e-02
1.057374000549316517e-01
-2.289618492126465066e-01
-7.905416488647461215e-02
-3.223485946655273854e-02
8.175754547119140278e-03
-2.676763534545898576e-02
1.783646583557129128e-01
2.733773231506347878e-01
-7.549953460693360069e-03
-9.586248397827148993e-02
-3.863058090209961493e-02
-3.485495567321777455e-01
1.460602760314941573e-01
-1.487463951110839788e-01
-2.425398826599121094e-01
-1.051549911499023542e-02
1.565064430236816628e-01
-2.979193687438965177e-01
-1.458632469177246205e-01
1.749794960021972823e-01
-2.887114524841308816e-01
-5.588140487670898576e-02
1.388993263244628906e-01
9.543542861938476840e-02
9.790658950805664062e-02
-1.351325035095214955e-01
9.924783706665039895e-02
3.835229873657226840e-02
2.038605690002441573e-01
3.518273353576660267e-01
2.268228530883789271e-02
9.123010635375977673e-02
-8.334951400756836215e-02
-1.075018882751464927e-01
1.967026710510254017e-01
-5.843114852905273438e-02
-7.622365951538086215e-02
-2.562017440795898507e-02
-2.911910057067871316e-01
-1.231314659118652455e-01
-8.726186752319337048e-02
2.849724769592285045e-01
4.650125503540039618e-02
-1.537084579467773438e-02
-2.289641380310058760e-01
1.117760658264160267e-01
9.727945327758789895e-02
1.523507118225097823e-01
-1.383047103881836042e-02
1.422905921936035156e-01
-5.135641098022461493e-02
6.753320693969726285e-02
4.563913345336914618e-02
6.401605606079101285e-02
-1.119063377380371122e-01
1.767663955688476493e-02
-3.630553245544433927e-01
-2.355475425720214844e-01
3.129673004150390885e-03
9.028100967407226562e-02
-1.524138450622558594e-01
1.310997962951660212e-01
1.812516212463378962e-01
-2.271536827087402566e-01
-3.493642807006835938e-02
-1.485419273376464844e-01
-9.004049301147461215e-02
1.528725624084472656e-01
-1.231230735778808677e-01
-1.869727134704589899e-01
-1.232466697692871094e-01
1.178597450256347740e-01
-5.294737815856933594e-01
1.033074378967285267e-01
-3.086690902709961215e-02
1.553078651428222712e-01
-1.664885520935058816e-01
-1.902014732360839955e-01
7.459878921508789062e-02
-2.472830772399902399e-01
-5.466673851013184038e-01
-3.799994468688965288e-01
-1.193495750427246149e-01
1.975869178771972878e-01
-3.825102806091308927e-01
2.141351699829101632e-02
-1.252120018005371260e-01
-2.258214950561523646e-02
1.348276138305664132e-02
-9.846258163452148438e-02
3.445115089416503906e-01
-2.029027938842773576e-02
1.288117408752441351e-01
-5.212774276733398576e-02
3.773209571838379017e-01
2.919625282287597878e-01
2.509766578674316739e-01
4.791803359985351979e-02
6.071634292602539479e-02
-1.983237266540527344e-01
-1.325224876403808538e-01
2.891747474670410267e-01
2.821976661682129017e-01
1.963509559631347878e-01
6.581430435180664340e-02
-2.408576011657714844e-01
3.292649269104004350e-01
-3.651342391967773299e-02
-6.651296615600586770e-02
-5.467901229858398993e-02
-1.105818748474121094e-01
-9.416866302490235416e-03
1.579957008361816406e-01
-2.647894859313965066e-01
-1.498427391052246094e-01
-2.348593711853027566e-01
2.684030532836914271e-02
-1.836890220642090066e-01
-1.010176658630371205e-01
3.746590614318847656e-01
2.275208473205566628e-01
-1.238776206970214899e-01
-7.660665512084961770e-02
1.066384315490722656e-01
4.753732681274414062e-02
2.021447181701660212e-01
2.108902931213378906e-01
4.857873916625976562e-02
-2.256102561950683594e-01
-3.181220054626465177e-01
-1.510268211364746149e-01
-1.120200157165527344e-01
-1.044219017028808622e-01
-3.971777915954590177e-01
-2.748579978942871094e-01
1.123421669006347684e-01
2.986023902893066295e-01
5.247735977172851562e-02
-2.731032371520996094e-01
9.165287017822265625e-03
7.096261978149413785e-02
1.183434486389160212e-01
1.417374610900878906e-01
-1.340506553649902510e-01
-9.984121322631836493e-02
-3.120795249938965177e-01
5.716409683227539201e-02
1.701943397521972767e-01
7.369089126586914062e-02
4.870843887329101562e-02
-3.932332992553710938e-02
-3.905997276306152344e-01
7.905893325805664340e-02
-1.117926597595214899e-01
-6.022481918334961215e-02
2.710671424865722656e-01
2.037629127502441628e-01
-1.060828208923339927e-01
2.819596290588379239e-01
2.426949501037597712e-01
-6.469717025756836770e-02
1.533379554748535156e-01
7.473001480102539618e-02
2.117836952209472823e-01
-3.882131576538086493e-02
-4.603033065795898715e-02
5.586338043212891319e-03
-3.341666221618652677e-01
1.688904762268066406e-01
-1.668767929077148368e-02
1.620285987854004073e-01
-1.076560020446777344e-01
2.459382057189941628e-01
-2.711340904235839955e-01
3.155679702758789479e-02
-2.211844444274902455e-01
-1.201781272888183677e-01
7.813043594360352673e-02
-9.832906723022460938e-02
1.274805068969726667e-02
1.580414772033691406e-01
-8.139410018920899270e-02
-1.401289939880371038e-01
-1.183585166931152427e-01
-3.190298080444336354e-02
1.377923011779785267e-01
1.936570167541503962e-01
7.299585342407226285e-02
1.974884986877441517e-01
2.318964004516601771e-02
-9.471035003662109722e-03
-1.256888389587402510e-01
-6.628408432006836770e-02
-1.377020835876464899e-01
-6.201314926147460938e-02
-2.269125938415527399e-01
-1.357207298278808594e-01
-5.738286972045898715e-02
1.235306739807128934e-01
-1.431754112243652510e-01
-3.233214378356933927e-01
1.516472816467285267e-01
2.346604347229004073e-01
2.130227088928222656e-01
-1.415862083435058538e-01
1.768883705139160378e-01
1.588761329650879017e-01
-4.708182334899902455e-01
9.698495864868164618e-02
-9.415960311889648438e-02
-2.163222312927246260e-01
-3.071982383728027455e-01
-3.201079368591308594e-01
2.260033607482910267e-01
1.965653419494629017e-01
-8.617305755615234028e-03
-1.053648948669433649e-01
-1.751227378845214844e-01
-3.149611473083496205e-01
-8.757543563842773438e-02
-1.712859153747558760e-01
-1.003789901733398438e-02
1.365983009338379017e-01
3.434273719787597767e-01
-3.037099838256836215e-02
-1.912421226501465066e-01
3.874368667602539479e-02
-2.281088829040527344e-01
4.879856109619141145e-03
-3.123540878295898507e-02
-5.210249900817871538e-01
-1.146842002868652399e-01
-1.780333518981933594e-01
-2.425177574157715010e-01
-5.520772933959960938e-02
-2.879858016967773438e-02
-9.161062240600587048e-02
-1.375891685485839955e-01
1.236954689025878962e-01
-8.295202255249023438e-02
-4.835195541381836354e-02
-2.894964218139648576e-02
3.031846046447754239e-01
1.035547256469726562e-02
-3.607573509216308594e-01
-2.909917831420898507e-02
1.707596778869628906e-01
1.386239051818847767e-01
5.867319107055664340e-02
-2.505377769470215066e-01
1.392068862915039201e-02
-2.106467247009277399e-01
9.743967056274414895e-02
1.942345619201660267e-01
-7.983236312866211215e-02
2.500435829162597767e-01
4.304208755493164201e-02
-2.072821617126464899e-01
-2.299947738647461007e-02
-1.918051719665527510e-01
-2.170195579528808594e-01
-1.675879478454589955e-01
7.191934585571289895e-02
-4.869298934936523715e-02
4.754734039306641319e-03
8.172035217285157117e-04
-1.075758934020996094e-01
1.668801307678222656e-01
-2.041350364685058649e-01
-2.145667076110839844e-01
-2.739851951599120983e-01
1.424141883850097712e-01
4.381113052368164340e-02
-3.262396812438965177e-01
2.601914405822753906e-01
-3.459081649780273299e-02
3.609323501586914062e-02
-2.467017173767089844e-01
-1.754598617553710868e-02
1.233651161193847767e-01
-1.397887229919433649e-01
1.115471839904785267e-01
-1.969747543334961215e-02
1.037819862365722684e-01
3.665256500244140798e-03
2.360070228576660323e-01
-5.876302719116210938e-02
1.941597938537597823e-01
-4.604482650756835938e-02
-1.858222007751464955e-01
-4.724264144897460938e-02
8.199853897094727673e-02
-2.014189720153808649e-01
-2.664404869079590177e-01
-9.763631820678711493e-02
5.479822158813477118e-02
2.250428199768066406e-01
-5.183478355407714622e-01
-1.224440574645996177e-01
5.884170532226562771e-05
1.208405494689941406e-01
-2.540442466735839955e-01
1.658341407775879017e-01
2.052803993225097712e-01
1.734742164611816628e-01
2.139702796936035212e-01
2.546982765197753906e-01
-4.203710556030273993e-02
7.044382095336913785e-02
-2.680425643920898715e-02
-3.683516502380371205e-01
-2.543936729431152677e-01
-3.007506370544433816e-01
1.111321449279785156e-01
-1.581563949584961076e-02
2.557106971740722989e-01
-5.260915756225586354e-02
3.152794837951660156e-01
1.998063087463378962e-01
1.757760047912597656e-01
-2.976317405700683594e-01
4.731377601623535378e-01
-2.339858055114746316e-01
-6.697750091552734722e-03
2.516816139221191295e-01
2.722069740295410267e-01
-2.969198226928711215e-02
-4.210567474365234722e-03
-1.171690940856933705e-01
-1.287460327148437500e-05
1.001877784729003906e-01
-1.292624473571777344e-01
-1.166838645935058677e-01
1.439782142639160212e-01
-1.568465232849121094e-01
-9.435338973999024548e-02
1.406373023986816351e-01
1.916802406311035323e-01
-1.132948875427246122e-01
-1.198339462280273438e-02
3.422944068908691517e-01
3.059320449829101840e-02
-2.816573143005371427e-01
2.053475379943847656e-01
-2.242125511169433816e-01
1.482171058654785101e-01
-3.744338035583496538e-01
-1.548605918884277399e-01
-7.138357162475586493e-02
-1.679480552673340010e-01
-1.041243553161621122e-01
-2.051077842712402399e-01
8.828134536743165173e-02
-3.040227890014648646e-02
-1.832289695739746094e-01
-2.578940391540527344e-01
1.422821998596191517e-01
2.483544349670410156e-01
2.757523536682128795e-01
-2.257193565368652566e-01
-2.188100814819336076e-02
1.558220863342285323e-01
1.603196144104004073e-01
-2.108373641967773576e-02
-1.167082786560058594e-01
-2.204993247985840010e-01
-2.420271873474121316e-01
4.351282119750976562e-02
-2.546996116638183816e-01
2.068902015686035212e-01
-4.378805160522461493e-02
2.555703163146972878e-01
2.516449928283691628e-01
-7.450933456420898160e-02
-1.574629783630371316e-01
-9.741125106811523993e-02
8.982553482055664895e-02
2.228020668029785378e-01
1.044480323791504017e-01
-3.279318809509277344e-01
-5.265798568725586076e-02
-1.367559432983398576e-02
-1.705550193786621316e-01
-3.484915733337402566e-01
1.116944313049316462e-01
3.035576820373535600e-01
1.050278663635254017e-01
-7.159032821655274270e-02
2.703827857971191628e-01
-1.379981040954589844e-01
2.186966896057128962e-01
-9.728145599365235069e-03
1.109070777893066406e-01
1.491570472717285156e-01
5.795145034790039062e-02
-2.754050254821777677e-01
1.207673072814941517e-01
-1.474768638610839955e-01
1.102921485900879017e-01
-1.811209678649902399e-01
-2.125365257263183705e-01
5.960016250610351840e-02
6.321878433227538785e-02
-2.393759727478027566e-01
1.984955787658691517e-01
5.788812637329102118e-02
2.042313575744628962e-01
3.732995986938476840e-02
2.413636207580566462e-01
-6.511297225952149270e-02
6.208298683166504350e-01
3.364968299865722656e-01
3.567600250244140712e-03
-4.219031333923339844e-01
-1.994856834411621316e-01
1.456246376037597656e-01
1.726075172424316462e-01
-1.249823570251464844e-01
-1.692152976989746149e-01
-4.778661727905273576e-02
-1.640166282653808816e-01
1.131493568420410267e-01
1.991410255432128906e-01
4.376306533813476701e-02
8.119516372680664340e-02
3.799920082092285156e-01
1.930832862854003906e-01
1.077736854553222740e-01
-4.257106781005859895e-03
1.630455970764160267e-01
-9.988851547241212048e-02
2.317452430725097656e-01
2.671265602111816406e-01
-5.018987655639648576e-02
2.077256202697753962e-01
1.031777381896972767e-01
1.828461647033691462e-01
2.778558731079101840e-02
-1.965743064880371149e-01
4.095711708068847656e-01
-1.695982933044433705e-01
-3.155280113220215177e-01
-4.252882957458496427e-01
2.384255409240722823e-01
9.729318618774414340e-02
2.073693275451660156e-01
9.083652496337890278e-03
7.724084854125977395e-02
2.710206031799316517e-01
-1.160223960876464872e-01
-5.958461761474609895e-03
2.135170936584472878e-01
-1.609160423278808705e-01
-1.982031822204589899e-01
2.170853614807128906e-01
-6.524572372436523993e-02
-1.110167503356933594e-01
4.832696914672851562e-02
1.657151222229004128e-01
-7.154760360717773993e-02
-2.917815208435058927e-01
-8.893194198608399270e-02
1.274308204650878851e-01
8.211145401000977118e-02
1.842896461486816517e-01
-1.224799156188964844e-01
-1.026754379272461042e-02
-3.167685508728027566e-01
2.046967506408691462e-01
4.351830482482910156e-01
4.012002944946289201e-02
2.193123817443847767e-01
2.569397926330566628e-01
7.155694961547852395e-02
-3.390645980834960938e-02
-2.214574813842773438e-02
2.851877212524414271e-02
7.414178848266601840e-02
5.515298843383789618e-02
4.635705947875976701e-02
6.933689117431640625e-03
-6.956243515014648438e-02
-2.052016258239746094e-01
1.123208045959472740e-01
7.968454360961914340e-02
-4.720557212829590288e-01
7.252969741821289895e-02
6.324548721313476285e-02
-6.572866439819335938e-02
-2.458380699157715066e-01
1.758469581604004128e-01
-2.133688926696777344e-01
5.819406509399414201e-02
9.659051895141601562e-02
-7.749843597412109548e-03
-4.300223350524902677e-01
3.389527320861816517e-01
4.273004531860351979e-02
-1.907607078552246149e-01
-9.921483993530273715e-02
6.404733657836914062e-02
8.008050918579101562e-02
1.143143653869628934e-01
2.665535926818847767e-01
3.209778785705566517e-01
9.614191055297852118e-02
-5.024623870849610069e-03
-4.452170372009277566e-01
-2.027556419372558705e-01
-2.215857505798339844e-01
-6.127767562866211215e-02
-3.470267295837402566e-01
-1.965322494506836076e-02
1.439752578735351701e-02
3.305521011352539201e-02
-1.513754844665527455e-01
1.577851295471191517e-01
9.159173965454102395e-02
1.654740333557128962e-01
2.292366981506347712e-01
1.705942153930664271e-02
9.749689102172852395e-02
2.347879409790039340e-02
8.230981826782227118e-02
-1.543303489685058649e-01
1.196129798889160184e-01
-1.054305076599121177e-01
9.534387588500976840e-02
1.311158180236816351e-01
4.544000625610351840e-02
-1.337538719177246149e-01
1.558388710021972878e-01
-2.391020774841308705e-01
-3.752202987670898854e-02
2.600870132446289271e-02
-4.870519638061523993e-02
2.225159645080566628e-01
3.582268714904785489e-01
6.135721206665039479e-02
-3.078832626342773576e-02
2.034699440002441517e-01
-2.798132896423339844e-01
5.979166030883789618e-02
9.708948135375977673e-02
-2.087401390075683816e-01
3.358574867248535489e-01
-9.118795394897460938e-02
2.242822647094726632e-02
2.733857154846191517e-01
4.927392005920410156e-01
-1.040816307067871094e-01
-1.672720909118652344e-01
1.373475074768066573e-01
7.833185195922852395e-02
1.086106300354003906e-01
1.548852920532226701e-02