# vtk DataFile Version 2.0
RG Distorted Ellipsoid: dims 16 10 33  center 7.5 4.5 16  noise no
ASCII

DATASET RECTILINEAR_GRID
DIMENSIONS 16 10 33
X_COORDINATES 16 float
0
0.0666667
0.266667
0.6
1.06667
1.66667
2.4
3.26667
4.26667
5.4
6.66667
8.06667
9.6
11.2667
13.0667
15
Y_COORDINATES 10 float
9
7.11111
5.44444
4
2.77778
1.77778
1
0.444444
0.111111
0
Z_COORDINATES 33 float
0
0.03125
0.125
0.28125
0.5
0.78125
1.125
1.53125
2
2.53125
3.125
3.78125
4.5
5.28125
6.125
7.03125
8
9.03125
10.125
11.2812
12.5
13.7812
15.125
16.5312
18
19.5312
21.125
22.7812
24.5
26.2812
28.125
30.0312
32
POINT_DATA 5280
SCALARS scalars double
LOOKUP_TABLE default
0.692820323027550922
0.663458949579985635
0.637216167751921136
0.614491659829488723
0.595688210765031423
0.581186525805423182
0.571314274283427959
0.566313615509208002
0.566313615509208002
0.571314274283427959
0.581186525805423182
0.595688210765031423
0.614491659829488723
0.637216167751921136
0.663458949579985635
0.692820323027550922
0.645592846503731166
0.613977117842813391
0.585520766413313853
0.560705023570139072
0.540032006367432427
0.523992272113404378
0.513020587751398249
0.507445794709051934
0.507445794709051934
0.513020587751398249
0.523992272113404378
0.540032006367432427
0.560705023570139072
0.585520766413313853
0.613977117842813391
0.645592846503731166
0.607768636941215301
0.574073596176623124
0.54353211542081592
0.516703702376306473
0.494193444405960525
0.476613568656160447
0.464524182416139408
0.458359931888132899
0.458359931888132899
0.464524182416139408
0.476613568656160447
0.494193444405960525
0.516703702376306473
0.54353211542081592
0.574073596176623124
0.607768636941215301
0.581186525805423182
0.545853053078899197
0.51363627424688596
0.485157477297606776
0.461109772421082198
0.442216638714053367
0.429159385051495534
0.422479453806796301
0.422479453806796301
0.429159385051495534
0.442216638714053367
0.461109772421082198
0.485157477297606776
0.51363627424688596
0.545853053078899197
0.581186525805423182
0.567428681546831348
0.531180841540574655
0.498015816100673359
0.468588634776789359
0.443643723145521029
0.423972978407531453
0.410335604891868155
0.403344046383588617
0.403344046383588617
0.410335604891868155
0.423972978407531453
0.443643723145521029
0.468588634776789359
0.498015816100673359
0.531180841540574655
0.567428681546831348
0.567428681546831348
0.531180841540574655
0.498015816100673359
0.468588634776789359
0.443643723145521029
0.423972978407531453
0.410335604891868155
0.403344046383588617
0.403344046383588617
0.410335604891868155
0.423972978407531453
0.443643723145521029
0.468588634776789359
0.498015816100673359
0.531180841540574655
0.567428681546831348
0.581186525805423182
0.545853053078899197
0.51363627424688596
0.485157477297606776
0.461109772421082198
0.442216638714053367
0.429159385051495534
0.422479453806796301
0.422479453806796301
0.429159385051495534
0.442216638714053367
0.461109772421082198
0.485157477297606776
0.51363627424688596
0.545853053078899197
0.581186525805423182
0.607768636941215301
0.574073596176623124
0.54353211542081592
0.516703702376306473
0.494193444405960525
0.476613568656160447
0.464524182416139408
0.458359931888132899
0.458359931888132899
0.464524182416139408
0.476613568656160447
0.494193444405960525
0.516703702376306473
0.54353211542081592
0.574073596176623124
0.607768636941215301
0.645592846503731166
0.613977117842813391
0.585520766413313853
0.560705023570139072
0.540032006367432427
0.523992272113404378
0.513020587751398249
0.507445794709051934
0.507445794709051934
0.513020587751398249
0.523992272113404378
0.540032006367432427
0.560705023570139072
0.585520766413313853
0.613977117842813391
0.645592846503731166
0.692820323027550922
0.663458949579985635
0.637216167751921136
0.614491659829488723
0.595688210765031423
0.581186525805423182
0.571314274283427959
0.566313615509208002
0.566313615509208002
0.571314274283427959
0.581186525805423182
0.595688210765031423
0.614491659829488723
0.637216167751921136
0.663458949579985635
0.692820323027550922
0.67869359802491136
0.648693130669485196
0.621827503769690537
0.598519005546189864
0.579197241399201146
0.564271900574339957
0.554098366718401403
0.548940899470162669
0.548940899470162669
0.554098366718401403
0.564271900574339957
0.579197241399201146
0.598519005546189864
0.621827503769690537
0.648693130669485196
0.67869359802491136
0.630408695575172207
0.597990720023787614
0.568735059497156858
0.543152946652036617
0.521784982441268252
0.505166211493373707
0.493776390137064092
0.487981797373530424
0.487981797373530424
0.493776390137064092
0.505166211493373707
0.521784982441268252
0.543152946652036617
0.568735059497156858
0.597990720023787614
0.630408695575172207
0.591614499525985882
0.55694298974595291
0.525406662018885307
0.497601965479822717
0.474185786895629346
0.455834941428540086
0.443179101548553112
0.43671366724719507
0.43671366724719507
0.443179101548553112
0.455834941428540086
0.474185786895629346
0.497601965479822717
0.525406662018885307
0.55694298974595291
0.591614499525985882
0.564271900574339957
0.527807309115320589
0.494416041631157321
0.464760989948358016
0.439598933372480127
0.419738675315434351
0.405959083871487991
0.398890823269837713
0.398890823269837713
0.405959083871487991
0.419738675315434351
0.439598933372480127
0.464760989948358016
0.494416041631157321
0.527807309115320589
0.564271900574339957
0.550091182116179134
0.512618851018720512
0.478168122198060985
0.447437491323620873
0.421241917532455101
0.400472329156151663
0.386005581102107032
0.378564947866395052
0.378564947866395052
0.386005581102107032
0.400472329156151663
0.421241917532455101
0.447437491323620873
0.478168122198060985
0.512618851018720512
0.550091182116179134
0.550091182116179134
0.512618851018720512
0.478168122198060985
0.447437491323620873
0.421241917532455101
0.400472329156151663
0.386005581102107032
0.378564947866395052
0.378564947866395052
0.386005581102107032
0.400472329156151663
0.421241917532455101
0.447437491323620873
0.478168122198060985
0.512618851018720512
0.550091182116179134
0.564271900574339957
0.527807309115320589
0.494416041631157321
0.464760989948358016
0.439598933372480127
0.419738675315434351
0.405959083871487991
0.398890823269837713
0.398890823269837713
0.405959083871487991
0.419738675315434351
0.439598933372480127
0.464760989948358016
0.494416041631157321
0.527807309115320589
0.564271900574339957
0.591614499525985882
0.55694298974595291
0.525406662018885307
0.497601965479822717
0.474185786895629346
0.455834941428540086
0.443179101548553112
0.43671366724719507
0.43671366724719507
0.443179101548553112
0.455834941428540086
0.474185786895629346
0.497601965479822717
0.525406662018885307
0.55694298974595291
0.591614499525985882
0.630408695575172207
0.597990720023787614
0.568735059497156858
0.543152946652036617
0.521784982441268252
0.505166211493373707
0.493776390137064092
0.487981797373530424
0.487981797373530424
0.493776390137064092
0.505166211493373707
0.521784982441268252
0.543152946652036617
0.568735059497156858
0.597990720023787614
0.630408695575172207
0.67869359802491136
0.648693130669485196
0.621827503769690537
0.598519005546189864
0.579197241399201146
0.564271900574339957
0.554098366718401403
0.548940899470162669
0.548940899470162669
0.554098366718401403
0.564271900574339957
0.579197241399201146
0.598519005546189864
0.621827503769690537
0.648693130669485196
0.67869359802491136
0.665206734782503584
0.634568970071636818
0.607078614715132581
0.583180932472933344
0.563333333333333353
0.547976074092453191
0.537494186015067488
0.532175827251775035
0.532175827251775035
0.537494186015067488
0.547976074092453191
0.563333333333333353
0.583180932472933344
0.607078614715132581
0.634568970071636818
0.665206734782503584
0.615865345231236594
0.582638739901980673
0.552570871383241236
0.526203500042322192
0.504117613163073908
0.486896191435677528
0.47506854606129223
0.469042892034301329
0.469042892034301329
0.47506854606129223
0.486896191435677528
0.504117613163073908
0.526203500042322192
0.552570871383241236
0.582638739901980673
0.615865345231236594
0.576092628011661723
0.540426214970333052
0.507865297587684394
0.479043542957613366
0.454672586037279336
0.435500279939244728
0.422235379911942876
0.415444132417938761
0.415444132417938761
0.422235379911942876
0.435500279939244728
0.454672586037279336
0.479043542957613366
0.507865297587684394
0.540426214970333052
0.576092628011661723
0.547976074092453191
0.510348464831193116
0.475733352017936817
0.444834551016192792
0.418476071265995175
0.39756201472921876
0.382985349299131528
0.375484871717741642
0.375484871717741642
0.382985349299131528
0.39756201472921876
0.418476071265995175
0.444834551016192792
0.475733352017936817
0.510348464831193116
0.547976074092453191
0.533362267733643924
0.494624187054932773
0.458824316145537037
0.426702834115236851
0.39914878565068912
0.37716453494430402
0.361766925854168309
0.353816929715193851
0.353816929715193851
0.361766925854168309
0.37716453494430402
0.39914878565068912
0.426702834115236851
0.458824316145537037
0.494624187054932773
0.533362267733643924
0.533362267733643924
0.494624187054932773
0.458824316145537037
0.426702834115236851
0.39914878565068912
0.37716453494430402
0.361766925854168309
0.353816929715193851
0.353816929715193851
0.361766925854168309
0.37716453494430402
0.39914878565068912
0.426702834115236851
0.458824316145537037
0.494624187054932773
0.533362267733643924
0.547976074092453191
0.510348464831193116
0.475733352017936817
0.444834551016192792
0.418476071265995175
0.39756201472921876
0.382985349299131528
0.375484871717741642
0.375484871717741642
0.382985349299131528
0.39756201472921876
0.418476071265995175
0.444834551016192792
0.475733352017936817
0.510348464831193116
0.547976074092453191
0.576092628011661723
0.540426214970333052
0.507865297587684394
0.479043542957613366
0.454672586037279336
0.435500279939244728
0.422235379911942876
0.415444132417938761
0.415444132417938761
0.422235379911942876
0.435500279939244728
0.454672586037279336
0.479043542957613366
0.507865297587684394
0.540426214970333052
0.576092628011661723
0.615865345231236594
0.582638739901980673
0.552570871383241236
0.526203500042322192
0.504117613163073908
0.486896191435677528
0.47506854606129223
0.469042892034301329
0.469042892034301329
0.47506854606129223
0.486896191435677528
0.504117613163073908
0.526203500042322192
0.552570871383241236
0.582638739901980673
0.615865345231236594
0.665206734782503584
0.634568970071636818
0.607078614715132581
0.583180932472933344
0.563333333333333353
0.547976074092453191
0.537494186015067488
0.532175827251775035
0.532175827251775035
0.537494186015067488
0.547976074092453191
0.563333333333333353
0.583180932472933344
0.607078614715132581
0.634568970071636818
0.665206734782503584
0.65239941753499453
0.621130242201889504
0.593017237898228688
0.568528803140175176
0.548150932175112238
0.53235587512281457
0.521560159521411326
0.516077621207421844
0.516077621207421844
0.521560159521411326
0.53235587512281457
0.548150932175112238
0.568528803140175176
0.593017237898228688
0.621130242201889504
0.65239941753499453
0.602009238680595526
0.56797262366646506
0.537084321034634771
0.509916780913111434
0.487092976649463272
0.469247164333006894
0.456962934445224123
0.450695279061031684
0.450695279061031684
0.456962934445224123
0.469247164333006894
0.487092976649463272
0.509916780913111434
0.537084321034634771
0.56797262366646506
0.602009238680595526
0.561255481977131931
0.524581255695588555
0.490970630989091994
0.461094042522111502
0.435720277808856638
0.415674745236176868
0.401755791556740016
0.394612249126270631
0.394612249126270631
0.401755791556740016
0.415674745236176868
0.435720277808856638
0.461094042522111502
0.490970630989091994
0.524581255695588555
0.561255481977131931
0.53235587512281457
0.493538808560740838
0.457654042069140066
0.425444212297896696
0.397802994234862761
0.375740010586516515
0.360281525723673168
0.352298011474502792
0.352298011474502792
0.360281525723673168
0.375740010586516515
0.397802994234862761
0.425444212297896696
0.457654042069140066
0.493538808560740838
0.53235587512281457
0.517300984574720624
0.47726102545646143
0.440050852841373019
0.406448408339822764
0.37741853834492517
0.354087681824365508
0.337639317381692561
0.329107003500512585
0.329107003500512585
0.337639317381692561
0.354087681824365508
0.37741853834492517
0.406448408339822764
0.440050852841373019
0.47726102545646143
0.517300984574720624
0.517300984574720624
0.47726102545646143
0.440050852841373019
0.406448408339822764
0.37741853834492517
0.354087681824365508
0.337639317381692561
0.329107003500512585
0.329107003500512585
0.337639317381692561
0.354087681824365508
0.37741853834492517
0.406448408339822764
0.440050852841373019
0.47726102545646143
0.517300984574720624
0.53235587512281457
0.493538808560740838
0.457654042069140066
0.425444212297896696
0.397802994234862761
0.375740010586516515
0.360281525723673168
0.352298011474502792
0.352298011474502792
0.360281525723673168
0.375740010586516515
0.397802994234862761
0.425444212297896696
0.457654042069140066
0.493538808560740838
0.53235587512281457
0.561255481977131931
0.524581255695588555
0.490970630989091994
0.461094042522111502
0.435720277808856638
0.415674745236176868
0.401755791556740016
0.394612249126270631
0.394612249126270631
0.401755791556740016
0.415674745236176868
0.435720277808856638
0.461094042522111502
0.490970630989091994
0.524581255695588555
0.561255481977131931
0.602009238680595526
0.56797262366646506
0.537084321034634771
0.509916780913111434
0.487092976649463272
0.469247164333006894
0.456962934445224123
0.450695279061031684
0.450695279061031684
0.456962934445224123
0.469247164333006894
0.487092976649463272
0.509916780913111434
0.537084321034634771
0.56797262366646506
0.602009238680595526
0.65239941753499453
0.621130242201889504
0.593017237898228688
0.568528803140175176
0.548150932175112238
0.53235587512281457
0.521560159521411326
0.516077621207421844
0.516077621207421844
0.521560159521411326
0.53235587512281457
0.548150932175112238
0.568528803140175176
0.593017237898228688
0.621130242201889504
0.65239941753499453
0.640312423743284898
0.608422367913752704
0.579693405555423258
0.554616984954481862
0.533708201590011533
0.517472489875334118
0.506359556046886539
0.500710606150010729
0.500710606150010729
0.506359556046886539
0.517472489875334118
0.533708201590011533
0.554616984954481862
0.579693405555423258
0.608422367913752704
0.640312423743284898
0.588888888888888906
0.554046840289309839
0.522335685073530676
0.494358294617163407
0.470780806640664407
0.452291831934391597
0.439533984416211165
0.433014127446093022
0.433014127446093022
0.439533984416211165
0.452291831934391597
0.470780806640664407
0.494358294617163407
0.522335685073530676
0.554046840289309839
0.588888888888888906
0.547158766766450255
0.509470797815891108
0.474791702216695422
0.443827349370656432
0.417405271281793
0.396434728331361619
0.381815028579785887
0.374291099494088786
0.374291099494088786
0.381815028579785887
0.396434728331361619
0.417405271281793
0.443827349370656432
0.474791702216695422
0.509470797815891108
0.547158766766450255
0.517472489875334118
0.477446913861170108
0.440252452829308194
0.406666666666666676
0.377653574353827903
0.354338193757821662
0.337902023932645013
0.329376515387616697
0.329376515387616697
0.337902023932645013
0.354338193757821662
0.377653574353827903
0.406666666666666676
0.440252452829308194
0.477446913861170108
0.517472489875334118
0.501971422136734069
0.460600788557459062
0.421923871197660227
0.386749671805905137
0.356117611311796534
0.331290033686123919
0.313648383770704808
0.304444444444444462
0.304444444444444462
0.313648383770704808
0.331290033686123919
0.356117611311796534
0.386749671805905137
0.421923871197660227
0.460600788557459062
0.501971422136734069
0.501971422136734069
0.460600788557459062
0.421923871197660227
0.386749671805905137
0.356117611311796534
0.331290033686123919
0.313648383770704808
0.304444444444444462
0.304444444444444462
0.313648383770704808
0.331290033686123919
0.356117611311796534
0.386749671805905137
0.421923871197660227
0.460600788557459062
0.501971422136734069
0.517472489875334118
0.477446913861170108
0.440252452829308194
0.406666666666666676
0.377653574353827903
0.354338193757821662
0.337902023932645013
0.329376515387616697
0.329376515387616697
0.337902023932645013
0.354338193757821662
0.377653574353827903
0.406666666666666676
0.440252452829308194
0.477446913861170108
0.517472489875334118
0.547158766766450255
0.509470797815891108
0.474791702216695422
0.443827349370656432
0.417405271281793
0.396434728331361619
0.381815028579785887
0.374291099494088786
0.374291099494088786
0.381815028579785887
0.396434728331361619
0.417405271281793
0.443827349370656432
0.474791702216695422
0.509470797815891108
0.547158766766450255
0.588888888888888906
0.554046840289309839
0.522335685073530676
0.494358294617163407
0.470780806640664407
0.452291831934391597
0.439533984416211165
0.433014127446093022
0.433014127446093022
0.439533984416211165
0.452291831934391597
0.470780806640664407
0.494358294617163407
0.522335685073530676
0.554046840289309839
0.588888888888888906
0.640312423743284898
0.608422367913752704
0.579693405555423258
0.554616984954481862
0.533708201590011533
0.517472489875334118
0.506359556046886539
0.500710606150010729
0.500710606150010729
0.506359556046886539
0.517472489875334118
0.533708201590011533
0.554616984954481862
0.579693405555423258
0.608422367913752704
0.640312423743284898
0.628987281270456222
0.596492060112938871
0.567159099763412389
0.541502539236890401
0.520066769217611635
0.503391277017965266
0.491960364257121918
0.486144125863011034
0.486144125863011034
0.491960364257121918
0.503391277017965266
0.520066769217611635
0.541502539236890401
0.567159099763412389
0.596492060112938871
0.628987281270456222
0.5765545277393892
0.54091857172273905
0.508389189402405184
0.479598919365744725
0.455257693950618103
0.436111111111111172
0.422865372733202349
0.416084407984607496
0.416084407984607496
0.422865372733202349
0.436111111111111172
0.455257693950618103
0.479598919365744725
0.508389189402405184
0.54091857172273905
0.5765545277393892
0.533861139295025544
0.495162088438887371
0.459404136348190884
0.427326240768552301
0.399815157909035768
0.377869678364327777
0.362502022131439616
0.354568508416207018
0.354568508416207018
0.362502022131439616
0.377869678364327777
0.399815157909035768
0.427326240768552301
0.459404136348190884
0.495162088438887371
0.533861139295025544
0.503391277017965266
0.462147763767775388
0.423612112931420093
0.388590758739548237
0.358116213291470808
0.333437483729042639
0.315915776398991821
0.306779870410183397
0.306779870410183397
0.315915776398991821
0.333437483729042639
0.358116213291470808
0.388590758739548237
0.423612112931420093
0.462147763767775388
0.503391277017965266
0.487442620871395782
0.444722482476154035
0.404530286982841103
0.367695945914522315
0.335327829275203104
0.308833428274455257
0.289828067381292964
0.279841776282753085
0.279841776282753085
0.289828067381292964
0.308833428274455257
0.335327829275203104
0.367695945914522315
0.404530286982841103
0.444722482476154035
0.487442620871395782
0.487442620871395782
0.444722482476154035
0.404530286982841103
0.367695945914522315
0.335327829275203104
0.308833428274455257
0.289828067381292964
0.279841776282753085
0.279841776282753085
0.289828067381292964
0.308833428274455257
0.335327829275203104
0.367695945914522315
0.404530286982841103
0.444722482476154035
0.487442620871395782
0.503391277017965266
0.462147763767775388
0.423612112931420093
0.388590758739548237
0.358116213291470808
0.333437483729042639
0.315915776398991821
0.306779870410183397
0.306779870410183397
0.315915776398991821
0.333437483729042639
0.358116213291470808
0.388590758739548237
0.423612112931420093
0.462147763767775388
0.503391277017965266
0.533861139295025544
0.495162088438887371
0.459404136348190884
0.427326240768552301
0.399815157909035768
0.377869678364327777
0.362502022131439616
0.354568508416207018
0.354568508416207018
0.362502022131439616
0.377869678364327777
0.399815157909035768
0.427326240768552301
0.459404136348190884
0.495162088438887371
0.533861139295025544
0.5765545277393892
0.54091857172273905
0.508389189402405184
0.479598919365744725
0.455257693950618103
0.436111111111111172
0.422865372733202349
0.416084407984607496
0.416084407984607496
0.422865372733202349
0.436111111111111172
0.455257693950618103
0.479598919365744725
0.508389189402405184
0.54091857172273905
0.5765545277393892
0.628987281270456222
0.596492060112938871
0.567159099763412389
0.541502539236890401
0.520066769217611635
0.503391277017965266
0.491960364257121918
0.486144125863011034
0.486144125863011034
0.491960364257121918
0.503391277017965266
0.520066769217611635
0.541502539236890401
0.567159099763412389
0.596492060112938871
0.628987281270456222
0.618465843842649132
0.585386861637479661
0.555467770842237529
0.529244744895969621
0.507291281656253701
0.490181372328424736
0.47843494855622748
0.472452231565383851
0.472452231565383851
0.47843494855622748
0.490181372328424736
0.507291281656253701
0.529244744895969621
0.555467770842237529
0.585386861637479661
0.618465843842649132
0.56505762843871965
0.528647237044295948
0.495312596146347373
0.46571463736583385
0.440607044770319811
0.420794369299980042
0.407050517082081786
0.400001543206899735
0.400001543206899735
0.407050517082081786
0.420794369299980042
0.440607044770319811
0.46571463736583385
0.495312596146347373
0.528647237044295948
0.56505762843871965
0.521423739437880562
0.481726575794984069
0.444890054388527745
0.411682785709316157
0.383049814637505315
0.360084009402195648
0.343922543677181392
0.335550036746375346
0.335550036746375346
0.343922543677181392
0.360084009402195648
0.383049814637505315
0.411682785709316157
0.444890054388527745
0.481726575794984069
0.521423739437880562
0.490181372328424736
0.447722632391479136
0.407826215712308315
0.37131897039846723
0.339296658135947782
0.31313823713426564
0.294410899556687256
0.284585468513219919
0.284585468513219919
0.294410899556687256
0.31313823713426564
0.339296658135947782
0.37131897039846723
0.407826215712308315
0.447722632391479136
0.490181372328424736
0.473788252959035816
0.429712795271159131
0.387968752719107191
0.349392771307557692
0.315150365835770163
0.286797988869784637
0.266224169905693031
0.255316313135464212
0.255316313135464212
0.266224169905693031
0.286797988869784637
0.315150365835770163
0.349392771307557692
0.387968752719107191
0.429712795271159131
0.473788252959035816
0.473788252959035816
0.429712795271159131
0.387968752719107191
0.349392771307557692
0.315150365835770163
0.286797988869784637
0.266224169905693031
0.255316313135464212
0.255316313135464212
0.266224169905693031
0.286797988869784637
0.315150365835770163
0.349392771307557692
0.387968752719107191
0.429712795271159131
0.473788252959035816
0.490181372328424736
0.447722632391479136
0.407826215712308315
0.37131897039846723
0.339296658135947782
0.31313823713426564
0.294410899556687256
0.284585468513219919
0.284585468513219919
0.294410899556687256
0.31313823713426564
0.339296658135947782
0.37131897039846723
0.407826215712308315
0.447722632391479136
0.490181372328424736
0.521423739437880562
0.481726575794984069
0.444890054388527745
0.411682785709316157
0.383049814637505315
0.360084009402195648
0.343922543677181392
0.335550036746375346
0.335550036746375346
0.343922543677181392
0.360084009402195648
0.383049814637505315
0.411682785709316157
0.444890054388527745
0.481726575794984069
0.521423739437880562
0.56505762843871965
0.528647237044295948
0.495312596146347373
0.46571463736583385
0.440607044770319811
0.420794369299980042
0.407050517082081786
0.400001543206899735
0.400001543206899735
0.407050517082081786
0.420794369299980042
0.440607044770319811
0.46571463736583385
0.495312596146347373
0.528647237044295948
0.56505762843871965
0.618465843842649132
0.585386861637479661
0.555467770842237529
0.529244744895969621
0.507291281656253701
0.490181372328424736
0.47843494855622748
0.472452231565383851
0.472452231565383851
0.47843494855622748
0.490181372328424736
0.507291281656253701
0.529244744895969621
0.555467770842237529
0.585386861637479661
0.618465843842649132
0.6087897830942961
0.575154568596805915
0.544673704564893058
0.517904431338446769
0.495448730389375869
0.477915031964655623
0.465859420855691209
0.459713074766327612
0.459713074766327612
0.465859420855691209
0.477915031964655623
0.495448730389375869
0.517904431338446769
0.544673704564893058
0.575154568596805915
0.6087897830942961
0.554450289437015353
0.517293824856403961
0.48317653906334751
0.452785957662989125
0.426918690035040016
0.406439295878939288
0.392192712141352984
0.384871711831229923
0.384871711831229923
0.392192712141352984
0.406439295878939288
0.426918690035040016
0.452785957662989125
0.48317653906334751
0.517293824856403961
0.554450289437015353
0.509909517512060928
0.469239271403364633
0.431337640942483891
0.396998382930438043
0.367222222222222283
0.343198912916635734
0.326201955925133513
0.317362296375126807
0.317362296375126807
0.326201955925133513
0.343198912916635734
0.367222222222222283
0.396998382930438043
0.431337640942483891
0.469239271403364633
0.509909517512060928
0.477915031964655623
0.43425862749697397
0.39299773818970285
0.354968699715591529
0.321321057856814363
0.293565249230142322
0.273500964857123996
0.262895205146250033
0.262895205146250033
0.273500964857123996
0.293565249230142322
0.321321057856814363
0.354968699715591529
0.39299773818970285
0.43425862749697397
0.477915031964655623
0.461086010026302284
0.415665835040303855
0.372350309636529986
0.331964318326496199
0.295710590081619762
0.265288685057906481
0.242899791358443334
0.230892658508421222
0.230892658508421222
0.242899791358443334
0.265288685057906481
0.295710590081619762
0.331964318326496199
0.372350309636529986
0.415665835040303855
0.461086010026302284
0.461086010026302284
0.415665835040303855
0.372350309636529986
0.331964318326496199
0.295710590081619762
0.265288685057906481
0.242899791358443334
0.230892658508421222
0.230892658508421222
0.242899791358443334
0.265288685057906481
0.295710590081619762
0.331964318326496199
0.372350309636529986
0.415665835040303855
0.461086010026302284
0.477915031964655623
0.43425862749697397
0.39299773818970285
0.354968699715591529
0.321321057856814363
0.293565249230142322
0.273500964857123996
0.262895205146250033
0.262895205146250033
0.273500964857123996
0.293565249230142322
0.321321057856814363
0.354968699715591529
0.39299773818970285
0.43425862749697397
0.477915031964655623
0.509909517512060928
0.469239271403364633
0.431337640942483891
0.396998382930438043
0.367222222222222283
0.343198912916635734
0.326201955925133513
0.317362296375126807
0.317362296375126807
0.326201955925133513
0.343198912916635734
0.367222222222222283
0.396998382930438043
0.431337640942483891
0.469239271403364633
0.509909517512060928
0.554450289437015353
0.517293824856403961
0.48317653906334751
0.452785957662989125
0.426918690035040016
0.406439295878939288
0.392192712141352984
0.384871711831229923
0.384871711831229923
0.392192712141352984
0.406439295878939288
0.426918690035040016
0.452785957662989125
0.48317653906334751
0.517293824856403961
0.554450289437015353
0.6087897830942961
0.575154568596805915
0.544673704564893058
0.517904431338446769
0.495448730389375869
0.477915031964655623
0.465859420855691209
0.459713074766327612
0.459713074766327612
0.465859420855691209
0.477915031964655623
0.495448730389375869
0.517904431338446769
0.544673704564893058
0.575154568596805915
0.6087897830942961
0.600000000000000089
0.565842537971278592
0.534831229870175395
0.507543101617980774
0.484607515876966599
0.46666666666666673
0.454312667664021896
0.448007936437638532
0.448007936437638532
0.454312667664021896
0.46666666666666673
0.484607515876966599
0.507543101617980774
0.534831229870175395
0.565842537971278592
0.600000000000000089
0.5447844743169451
0.506920014632060045
0.472053564652608615
0.440896953331263219
0.414288025293073847
0.393151244732314109
0.37840470855525854
0.370811589042064904
0.370811589042064904
0.37840470855525854
0.393151244732314109
0.414288025293073847
0.440896953331263219
0.472053564652608615
0.506920014632060045
0.5447844743169451
0.499382334538760742
0.457777777777777839
0.418840256534430022
0.383383249568082674
0.35245873587389942
0.327353774725694158
0.309487828596509973
0.300156337864943057
0.300156337864943057
0.309487828596509973
0.327353774725694158
0.35245873587389942
0.383383249568082674
0.418840256534430022
0.457777777777777839
0.499382334538760742
0.46666666666666673
0.421847787188170065
0.379239004088743781
0.339673045409519925
0.304338992280355436
0.274873708374510695
0.253333333333333355
0.241844761962894061
0.241844761962894061
0.253333333333333355
0.274873708374510695
0.304338992280355436
0.339673045409519925
0.379239004088743781
0.421847787188170065
0.46666666666666673
0.449416631470148542
0.402682364177714025
0.35779848111251078
0.315555555555555589
0.277163765825224284
0.244444444444444464
0.219943876118375514
0.20660692087412369
0.20660692087412369
0.219943876118375514
0.244444444444444464
0.277163765825224284
0.315555555555555589
0.35779848111251078
0.402682364177714025
0.449416631470148542
0.449416631470148542
0.402682364177714025
0.35779848111251078
0.315555555555555589
0.277163765825224284
0.244444444444444464
0.219943876118375514
0.20660692087412369
0.20660692087412369
0.219943876118375514
0.244444444444444464
0.277163765825224284
0.315555555555555589
0.35779848111251078
0.402682364177714025
0.449416631470148542
0.46666666666666673
0.421847787188170065
0.379239004088743781
0.339673045409519925
0.304338992280355436
0.274873708374510695
0.253333333333333355
0.241844761962894061
0.241844761962894061
0.253333333333333355
0.274873708374510695
0.304338992280355436
0.339673045409519925
0.379239004088743781
0.421847787188170065
0.46666666666666673
0.499382334538760742
0.457777777777777839
0.418840256534430022
0.383383249568082674
0.35245873587389942
0.327353774725694158
0.309487828596509973
0.300156337864943057
0.300156337864943057
0.309487828596509973
0.327353774725694158
0.35245873587389942