# vtk DataFile Version 3.0
vtk output
ASCII
DATASET POLYDATA
POINTS 122 float
0 0 0.5 0 0 -0.5 0.140866 0 0.479746 
0.27032 0 0.420627 0.377875 0 0.32743 0.454816 0 0.207707 
0.494911 0 0.0711574 0.494911 0 -0.0711574 0.454816 0 -0.207708 
0.377875 0 -0.32743 0.27032 0 -0.420627 0.140866 0 -0.479746 
0.121994 0.0704331 0.479746 0.234104 0.13516 0.420627 0.327249 0.188937 0.32743 
0.393882 0.227408 0.207707 0.428605 0.247455 0.0711574 0.428605 0.247455 -0.0711574 
0.393882 0.227408 -0.207708 0.327249 0.188937 -0.32743 0.234104 0.13516 -0.420627 
0.121994 0.0704331 -0.479746 0.0704331 0.121994 0.479746 0.13516 0.234104 0.420627 
0.188937 0.327249 0.32743 0.227408 0.393882 0.207707 0.247455 0.428605 0.0711574 
0.247455 0.428605 -0.0711574 0.227408 0.393882 -0.207708 0.188937 0.327249 -0.32743 
0.13516 0.234104 -0.420627 0.0704331 0.121994 -0.479746 -6.15746e-09 0.140866 0.479746 
-1.18161e-08 0.27032 0.420627 -1.65174e-08 0.377875 0.32743 -1.98806e-08 0.454816 0.207707 
-2.16332e-08 0.494911 0.0711574 -2.16332e-08 0.494911 -0.0711574 -1.98806e-08 0.454816 -0.207708 
-1.65174e-08 0.377875 -0.32743 -1.18161e-08 0.27032 -0.420627 -6.15746e-09 0.140866 -0.479746 
-0.0704331 0.121994 0.479746 -0.13516 0.234104 0.420627 -0.188937 0.327249 0.32743 
-0.227408 0.393882 0.207707 -0.247455 0.428605 0.0711574 -0.247455 0.428605 -0.0711574 
-0.227408 0.393882 -0.207708 -0.188937 0.327249 -0.32743 -0.13516 0.234104 -0.420627 
-0.0704331 0.121994 -0.479746 -0.121994 0.0704331 0.479746 -0.234104 0.13516 0.420627 
-0.327249 0.188937 0.32743 -0.393882 0.227408 0.207707 -0.428605 0.247455 0.0711574 
-0.428605 0.247455 -0.0711574 -0.393882 0.227408 -0.207708 -0.327249 0.188937 -0.32743 
-0.234104 0.13516 -0.420627 -0.121994 0.0704331 -0.479746 -0.140866 -1.23149e-08 0.479746 
-0.27032 -2.36322e-08 0.420627 -0.377875 -3.30349e-08 0.32743 -0.454816 -3.97613e-08 0.207707 
-0.494911 -4.32665e-08 0.0711574 -0.494911 -4.32665e-08 -0.0711574 -0.454816 -3.97613e-08 -0.207708 
-0.377875 -3.30349e-08 -0.32743 -0.27032 -2.36322e-08 -0.420627 -0.140866 -1.23149e-08 -0.479746 
-0.121994 -0.0704332 0.479746 -0.234104 -0.13516 0.420627 -0.327249 -0.188937 0.32743 
-0.393882 -0.227408 0.207707 -0.428605 -0.247455 0.0711574 -0.428605 -0.247455 -0.0711574 
-0.393882 -0.227408 -0.207708 -0.327249 -0.188937 -0.32743 -0.234104 -0.13516 -0.420627 
-0.121994 -0.0704331 -0.479746 -0.0704331 -0.121994 0.479746 -0.13516 -0.234104 0.420627 
-0.188937 -0.327249 0.32743 -0.227408 -0.393882 0.207707 -0.247455 -0.428605 0.0711574 
-0.247455 -0.428605 -0.0711574 -0.227408 -0.393882 -0.207708 -0.188937 -0.327249 -0.32743 
-0.13516 -0.234104 -0.420627 -0.0704331 -0.121994 -0.479746 1.84724e-08 -0.140866 0.479746 
3.54482e-08 -0.27032 0.420627 4.95523e-08 -0.377875 0.32743 5.96419e-08 -0.454816 0.207707 
6.48997e-08 -0.494911 0.0711574 6.48997e-08 -0.494911 -0.0711574 5.96419e-08 -0.454816 -0.207708 
4.95523e-08 -0.377875 -0.32743 3.54482e-08 -0.27032 -0.420627 1.84724e-08 -0.140866 -0.479746 
0.0704332 -0.121994 0.479746 0.13516 -0.234104 0.420627 0.188937 -0.327249 0.32743 
0.227408 -0.393882 0.207707 0.247455 -0.428605 0.0711574 0.247455 -0.428605 -0.0711574 
0.227408 -0.393882 -0.207708 0.188937 -0.327249 -0.32743 0.13516 -0.234104 -0.420627 
0.0704331 -0.121994 -0.479746 0.121994 -0.0704331 0.479746 0.234104 -0.13516 0.420627 
0.327249 -0.188937 0.32743 0.393882 -0.227408 0.207707 0.428605 -0.247455 0.0711574 
0.428605 -0.247455 -0.0711574 0.393882 -0.227408 -0.207708 0.327249 -0.188937 -0.32743 
0.234104 -0.13516 -0.420627 0.121994 -0.0704331 -0.479746 
POLYGONS 240 960
3 2 12 0 
3 12 22 0 
3 22 32 0 
3 32 42 0 
3 42 52 0 
3 52 62 0 
3 62 72 0 
3 72 82 0 
3 82 92 0 
3 92 102 0 
3 102 112 0 
3 112 2 0 
3 11 1 21 
3 21 1 31 
3 31 1 41 
3 41 1 51 
3 51 1 61 
3 61 1 71 
3 71 1 81 
3 81 1 91 
3 91 1 101 
3 101 1 111 
3 111 1 121 
3 121 1 11 
3 2 3 13 
3 2 13 12 
3 3 4 14 
3 3 14 13 
3 4 5 15 
3 4 15 14 
3 5 6 16 
3 5 16 15 
3 6 7 17 
3 6 17 16 
3 7 8 18 
3 7 18 17 
3 8 9 19 
3 8 19 18 
3 9 10 20 
3 9 20 19 
3 10 11 21 
3 10 21 20 
3 12 13 23 
3 12 23 22 
3 13 14 24 
3 13 24 23 
3 14 15 25 
3 14 25 24 
3 15 16 26 
3 15 26 25 
3 16 17 27 
3 16 27 26 
3 17 18 28 
3 17 28 27 
3 18 19 29 
3 18 29 28 
3 19 20 30 
3 19 30 29 
3 20 21 31 
3 20 31 30 
3 22 23 33 
3 22 33 32 
3 23 24 34 
3 23 34 33 
3 24 25 35 
3 24 35 34 
3 25 26 36 
3 25 36 35 
3 26 27 37 
3 26 37 36 
3 27 28 38 
3 27 38 37 
3 28 29 39 
3 28 39 38 
3 29 30 40 
3 29 40 39 
3 30 31 41 
3 30 41 40 
3 32 33 43 
3 32 43 42 
3 33 34 44 
3 33 44 43 
3 34 35 45 
3 34 45 44 
3 35 36 46 
3 35 46 45 
3 36 37 47 
3 36 47 46 
3 37 38 48 
3 37 48 47 
3 38 39 49 
3 38 49 48 
3 39 40 50 
3 39 50 49 
3 40 41 51 
3 40 51 50 
3 42 43 53 
3 42 53 52 
3 43 44 54 
3 43 54 53 
3 44 45 55 
3 44 55 54 
3 45 46 56 
3 45 56 55 
3 46 47 57 
3 46 57 56 
3 47 48 58 
3 47 58 57 
3 48 49 59 
3 48 59 58 
3 49 50 60 
3 49 60 59 
3 50 51 61 
3 50 61 60 
3 52 53 63 
3 52 63 62 
3 53 54 64 
3 53 64 63 
3 54 55 65 
3 54 65 64 
3 55 56 66 
3 55 66 65 
3 56 57 67 
3 56 67 66 
3 57 58 68 
3 57 68 67 
3 58 59 69 
3 58 69 68 
3 59 60 70 
3 59 70 69 
3 60 61 71 
3 60 71 70 
3 62 63 73 
3 62 73 72 
3 63 64 74 
3 63 74 73 
3 64 65 75 
3 64 75 74 
3 65 66 76 
3 65 76 75 
3 66 67 77 
3 66 77 76 
3 67 68 78 
3 67 78 77 
3 68 69 79 
3 68 79 78 
3 69 70 80 
3 69 80 79 
3 70 71 81 
3 70 81 80 
3 72 73 83 
3 72 83 82 
3 73 74 84 
3 73 84 83 
3 74 75 85 
3 74 85 84 
3 75 76 86 
3 75 86 85 
3 76 77 87 
3 76 87 86 
3 77 78 88 
3 77 88 87 
3 78 79 89 
3 78 89 88 
3 79 80 90 
3 79 90 89 
3 80 81 91 
3 80 91 90 
3 82 83 93 
3 82 93 92 
3 83 84 94 
3 83 94 93 
3 84 85 95 
3 84 95 94 
3 85 86 96 
3 85 96 95 
3 86 87 97 
3 86 97 96 
3 87 88 98 
3 87 98 97 
3 88 89 99 
3 88 99 98 
3 89 90 100 
3 89 100 99 
3 90 91 101 
3 90 101 100 
3 92 93 103 
3 92 103 102 
3 93 94 104 
3 93 104 103 
3 94 95 105 
3 94 105 104 
3 95 96 106 
3 95 106 105 
3 96 97 107 
3 96 107 106 
3 97 98 108 
3 97 108 107 
3 98 99 109 
3 98 109 108 
3 99 100 110 
3 99 110 109 
3 100 101 111 
3 100 111 110 
3 102 103 113 
3 102 113 112 
3 103 104 114 
3 103 114 113 
3 104 105 115 
3 104 115 114 
3 105 106 116 
3 105 116 115 
3 106 107 117 
3 106 117 116 
3 107 108 118 
3 107 118 117 
3 108 109 119 
3 108 119 118 
3 109 110 120 
3 109 120 119 
3 110 111 121 
3 110 121 120 
3 112 113 3 
3 112 3 2 
3 113 114 4 
3 113 4 3 
3 114 115 5 
3 114 5 4 
3 115 116 6 
3 115 6 5 
3 116 117 7 
3 116 7 6 
3 117 118 8 
3 117 8 7 
3 118 119 9 
3 118 9 8 
3 119 120 10 
3 119 10 9 
3 120 121 11 
3 120 11 10 

POINT_DATA 122
SCALARS Elevation float
LOOKUP_TABLE default
0.75 0.25 0.739873 0.710313 0.663715 0.603854 0.535579 0.464421 0.396146 
0.336285 0.289687 0.260127 0.739873 0.710313 0.663715 0.603854 0.535579 0.464421 
0.396146 0.336285 0.289687 0.260127 0.739873 0.710313 0.663715 0.603854 0.535579 
0.464421 0.396146 0.336285 0.289687 0.260127 0.739873 0.710313 0.663715 0.603854 
0.535579 0.464421 0.396146 0.336285 0.289687 0.260127 0.739873 0.710313 0.663715 
0.603854 0.535579 0.464421 0.396146 0.336285 0.289687 0.260127 0.739873 0.710313 
0.663715 0.603854 0.535579 0.464421 0.396146 0.336285 0.289687 0.260127 0.739873 
0.710313 0.663715 0.603854 0.535579 0.464421 0.396146 0.336285 0.289687 0.260127 
0.739873 0.710313 0.663715 0.603854 0.535579 0.464421 0.396146 0.336285 0.289687 
0.260127 0.739873 0.710313 0.663715 0.603854 0.535579 0.464421 0.396146 0.336285 
0.289687 0.260127 0.739873 0.710313 0.663715 0.603854 0.535579 0.464421 0.396146 
0.336285 0.289687 0.260127 0.739873 0.710313 0.663715 0.603854 0.535579 0.464421 
0.396146 0.336285 0.289687 0.260127 0.739873 0.710313 0.663715 0.603854 0.535579 
0.464421 0.396146 0.336285 0.289687 0.260127 
NORMALS Normals float
0 0 1 0 0 -1 0.281733 0 0.959493 
0.540641 0 0.841254 0.75575 0 0.654861 0.909632 0 0.415415 
0.989821 0 0.142315 0.989821 0 -0.142315 0.909632 0 -0.415415 
0.75575 0 -0.654861 0.540641 0 -0.841254 0.281732 0 -0.959493 
0.243988 0.140866 0.959493 0.468209 0.27032 0.841254 0.654498 0.377875 0.654861 
0.787764 0.454816 0.415415 0.857211 0.494911 0.142315 0.857211 0.494911 -0.142315 
0.787764 0.454816 -0.415415 0.654498 0.377875 -0.654861 0.468209 0.27032 -0.841254 
0.243987 0.140866 -0.959493 0.140866 0.243988 0.959493 0.27032 0.468209 0.841254 
0.377875 0.654498 0.654861 0.454816 0.787764 0.415415 0.494911 0.857211 0.142315 
0.494911 0.857211 -0.142315 0.454816 0.787764 -0.415415 0.377875 0.654498 -0.654861 
0.27032 0.468209 -0.841254 0.140866 0.243987 -0.959493 -1.23149e-08 0.281733 0.959493 
-2.36322e-08 0.540641 0.841254 -3.30349e-08 0.75575 0.654861 -3.97613e-08 0.909632 0.415415 
-4.32665e-08 0.989821 0.142315 -4.32665e-08 0.989821 -0.142315 -3.97613e-08 0.909632 -0.415415 
-3.30349e-08 0.75575 -0.654861 -2.36322e-08 0.540641 -0.841254 -1.23149e-08 0.281732 -0.959493 
-0.140866 0.243988 0.959493 -0.27032 0.468209 0.841254 -0.377875 0.654498 0.654861 
-0.454816 0.787764 0.415415 -0.494911 0.857211 0.142315 -0.494911 0.85721 -0.142315 
-0.454816 0.787764 -0.415415 -0.377875 0.654498 -0.654861 -0.27032 0.468209 -0.841254 
-0.140866 0.243987 -0.959493 -0.243988 0.140866 0.959493 -0.468209 0.27032 0.841254 
-0.654498 0.377875 0.654861 -0.787764 0.454816 0.415415 -0.857211 0.494911 0.142315 
-0.857211 0.494911 -0.142315 -0.787764 0.454816 -0.415415 -0.654498 0.377875 -0.654861 
-0.468209 0.27032 -0.841254 -0.243988 0.140866 -0.959493 -0.281733 -2.46298e-08 0.959493 
-0.540641 -4.72643e-08 0.841254 -0.75575 -6.60697e-08 0.654861 -0.909632 -7.95226e-08 0.415415 
-0.989821 -8.65329e-08 0.142315 -0.989821 -8.65329e-08 -0.142315 -0.909632 -7.95226e-08 -0.415415 
-0.75575 -6.60697e-08 -0.654861 -0.540641 -4.72643e-08 -0.841254 -0.281732 -2.46298e-08 -0.959493 
-0.243988 -0.140866 0.959493 -0.468209 -0.27032 0.841254 -0.654498 -0.377875 0.654861 
-0.787764 -0.454816 0.415415 -0.85721 -0.494911 0.142315 -0.85721 -0.494911 -0.142315 
-0.787764 -0.454816 -0.415415 -0.654498 -0.377875 -0.654861 -0.468209 -0.27032 -0.841254 
-0.243987 -0.140866 -0.959493 -0.140866 -0.243988 0.959493 -0.27032 -0.468209 0.841254 
-0.377875 -0.654498 0.654861 -0.454816 -0.787764 0.415415 -0.494911 -0.857211 0.142315 
-0.494911 -0.857211 -0.142315 -0.454816 -0.787764 -0.415415 -0.377875 -0.654498 -0.654861 
-0.27032 -0.468209 -0.841254 -0.140866 -0.243988 -0.959493 3.69448e-08 -0.281733 0.959493 
7.08965e-08 -0.540641 0.841254 9.91046e-08 -0.75575 0.654861 1.19284e-07 -0.909632 0.415415 
1.29799e-07 -0.989821 0.142315 1.29799e-07 -0.989821 -0.142315 1.19284e-07 -0.909632 -0.415415 
9.91046e-08 -0.75575 -0.654861 7.08965e-08 -0.540641 -0.841254 3.69448e-08 -0.281732 -0.959493 
0.140866 -0.243988 0.959493 0.27032 -0.468209 0.841254 0.377875 -0.654498 0.654861 
0.454816 -0.787764 0.415415 0.494911 -0.85721 0.142315 0.494911 -0.85721 -0.142315 
0.454816 -0.787764 -0.415415 0.377875 -0.654498 -0.654861 0.27032 -0.468209 -0.841254 
0.140866 -0.243987 -0.959493 0.243988 -0.140866 0.959493 0.468209 -0.27032 0.841254 
0.654498 -0.377875 0.654861 0.787764 -0.454816 0.415415 0.857211 -0.494911 0.142315 
0.857211 -0.494911 -0.142315 0.787764 -0.454816 -0.415415 0.654498 -0.377875 -0.654861 
0.468209 -0.27032 -0.841254 0.243988 -0.140866 -0.959493 
