# vtk DataFile Version 2.0
Ellipsoid: dims 5 5 5  center 0 0 0  noise no
ASCII

DATASET STRUCTURED_POINTS
DIMENSIONS 5 5 5
ORIGIN 0 0 0
SPACING 1 1 1
POINT_DATA 125
SCALARS scalars double
LOOKUP_TABLE default
0
0.200000000000000011
0.400000000000000022
0.600000000000000089
0.800000000000000044
0.200000000000000011
0.282842712474619062
0.447213595499957983
0.632455532033675993
0.824621125123532139
0.400000000000000022
0.447213595499957983
0.565685424949238125
0.721110255092797914
0.894427190999915966
0.600000000000000089
0.632455532033675993
0.721110255092797914
0.848528137423857021
1
0.800000000000000044
0.824621125123532139
0.894427190999915966
1
1.13137084989847625
0.200000000000000011
0.282842712474619062
0.447213595499957983
0.632455532033675993
0.824621125123532139
0.282842712474619062
0.346410161513775461
0.489897948556635598
0.663324958071080051
0.848528137423857021
0.447213595499957983
0.489897948556635598
0.600000000000000089
0.748331477354788333
0.916515138991167988
0.632455532033675993
0.663324958071080051
0.748331477354788333
0.871779788708134884
1.01980390271855703
0.824621125123532139
0.848528137423857021
0.916515138991167988
1.01980390271855703
1.14891252930760568
0.400000000000000022
0.447213595499957983
0.565685424949238125
0.721110255092797914
0.894427190999915966
0.447213595499957983
0.489897948556635598
0.600000000000000089
0.748331477354788333
0.916515138991167988
0.565685424949238125
0.600000000000000089
0.692820323027550922
0.824621125123532139
0.979795897113271197
0.721110255092797914
0.748331477354788333
0.824621125123532139
0.938083151964685946
1.07703296142690075
0.894427190999915966
0.916515138991167988
0.979795897113271197
1.07703296142690075
1.20000000000000018
0.600000000000000089
0.632455532033675993
0.721110255092797914
0.848528137423857021
1
0.632455532033675993
0.663324958071080051
0.748331477354788333
0.871779788708134884
1.01980390271855703
0.721110255092797914
0.748331477354788333
0.824621125123532139
0.938083151964685946
1.07703296142690075
0.848528137423857021
0.871779788708134884
0.938083151964685946
1.03923048454132649
1.16619037896906019
1
1.01980390271855703
1.07703296142690075
1.16619037896906019
1.2806248474865698
0.800000000000000044
0.824621125123532139
0.894427190999915966
1
1.13137084989847625
0.824621125123532139
0.848528137423857021
0.916515138991167988
1.01980390271855703
1.14891252930760568
0.894427190999915966
0.916515138991167988
0.979795897113271197
1.07703296142690075
1.20000000000000018
1
1.01980390271855703
1.07703296142690075
1.16619037896906019
1.2806248474865698
1.13137084989847625
1.14891252930760568
1.20000000000000018
1.2806248474865698
1.38564064605510184
