# vtk DataFile Version 2.0
Ellipsoid: dims 16 10 33  center 0 0 0  noise no
ASCII

DATASET STRUCTURED_POINTS
DIMENSIONS 16 10 33
ORIGIN 0 0 0
SPACING 1 1 1
POINT_DATA 5280
SCALARS scalars double
LOOKUP_TABLE default
0
0.0533333333333333368
0.106666666666666674
0.160000000000000031
0.213333333333333347
0.266666666666666663
0.320000000000000062
0.37333333333333335
0.426666666666666694
0.479999999999999982
0.533333333333333326
0.58666666666666667
0.640000000000000124
0.693333333333333357
0.746666666666666701
0.800000000000000044
0.0888888888888888923
0.103661367019472025
0.1388488831272294
0.183033424728657801
0.231111111111111101
0.281091347570522621
0.332116296751456153
0.383769478131962716
0.435827579453555991
0.488161074408745954
0.54069000269317502
0.593362462872129348
0.64614335450262228
0.699008115603111158
0.751939057157568147
0.804923123389992612
0.177777777777777785
0.185605449047298698
0.207322734038944051
0.239175538614643746
0.2776977662544588
0.320493446707910135
0.366066849457315602
0.413500563541795818
0.462222222222222201
0.511864179516016704
0.562182695141045241
0.613011187540148161
0.664232593502912305
0.715762564949240843
0.767538956263925432
0.819515062870479039
0.266666666666666663
0.271947707391615168
0.287208789713840229
0.310984101058416007
0.341499959329751968
0.377123616632825343
0.416546649381688283
0.458790680908940152
0.503145660376352222
0.549100274185973403
0.596284793999943941
0.644429118591710481
0.693333333333333468
0.742847374783153103
0.792856999856986988
0.843274042711567917
0.355555555555555569
0.359533305176118867
0.371210898094597397
0.389897105768201024
0.414645468077888102
0.444444444444444475
0.478351077229287491
0.515555555555555656
0.5553955325089176
0.597343915250184598
0.640986893415820269
0.68600111578932399
0.732133698914631204
0.779186026695506739
0.827001127083591636
0.875454026826320453
0.444444444444444475
0.447633006649392762
0.457065249144264607
0.472367297976406197
0.49299287551509513
0.518306835097360086
0.547659441804421832
0.580438318837849243
0.616096833819145151
0.654164248639079182
0.694244415636147139
0.736008588248336038
0.77918602669550685
0.823554476224033438
0.868931513589328852
0.915167123643289004
0.533333333333333326
0.535993366459780796
0.543895414783230335
0.556816347141895984
0.574417579427680458
0.596284793999943941
0.621968202116832014
0.651016299505797535
0.682999918659503935
0.717526615843931292
0.754247233265650685
0.792856999856986988
0.833093298763376566
0.874731704899025297
0.917581361817880303
0.961480340123730515
0.622222222222222232
0.624503753608899537
0.631298876606745107
0.642464391096627674
0.657777777777777906
0.676957609410125283
0.699685996592157466
0.725629569136304164
0.754456717295038159
0.785850172632901245
0.819515062870479039
0.855183180146182664
0.89261441497836036
0.931596267134144229
0.971942181890605994
1.01348926675478945
0.711111111111111138
0.713108306493567268
0.719066610352237734
0.728888888888888919
0.742421796189194794
0.759466999583780611
0.779794211536402049
0.803154275418774599
0.829290936155776204
0.857950471965415407
0.888888888888888951
0.921876775997452214
0.956702154458574983
0.993171749224065703
1.03111111111111131
1.0703639625593151
0.800000000000000044
0.80177580684655525
0.807079784022482927
0.81584312217484567
0.82795598380053459
0.843274042711567917
0.861626369141520798
0.882823752386498684
0.906666666666666732
0.932952303175248021
0.961480340123730515
0.992057346012707897
1.02449987798925579
1.05863643953489106
1.09430850819643699
1.13137084989847625
0.0250000000000000014
0.0589019901569076409
0.109557189530298651
0.161941347407016489
0.214793182180233799
0.267835977999803299
0.320975076914080726
0.374169450620675081
0.427398460975755512
0.480650600748610324
0.533918949321378178
0.587199095518528336
0.640488095127458301
0.693783908080254696
0.747085076220313282
0.800390529679106066
0.0923376118810814578
0.106633386011819403
0.141081580462082357
0.184732873544210419
0.232459341991265944
0.282200895957139652
0.33305590306718974
0.384582906985839745
0.4365440172678417
0.488800812773364013
0.541267659307616222
0.593888888888888911
0.646626812441226662
0.699455034779943752
0.752354534563999588
0.805311265640746843
0.179526984800628064
0.187281560000042147
0.208824605948108311
0.240478560939649949
0.278820819492942573
0.321467026898119124
0.36691952560691693
0.414255616798834436
0.462897810230346041
0.512474329378169835
0.56273828971916362
0.613520754375418531
0.664702894736893035
0.716199029169068524
0.767945993792998549
0.819896297266675678
0.267835977999803299
0.273094407770564873
0.288294795112379543
0.311987357293706857
0.342413817218613747
0.377951349014952198
0.417296191105443914
0.459471314544106169
0.503766370012484699
0.549669092373867296
0.596808642326462691
0.64491386160392683
0.693783908080254696
0.743267934342806358
0.793251046152617656
0.843644540734491688
0.356433378187873684
0.3604014394128639
0.372051785191520823
0.390697777171076011
0.415398440292607363
0.445147014139745612
0.479003917610722418
0.516161341892433456
0.555957909855471111
0.597866835579980771
0.641474237620548671
0.686456503257269368
0.732560409172117288
0.779586983086256402
0.827378912105892983
0.87581091171920189
0.445147014139745612
0.448330579641825544
0.457748448359258431
0.473028396819399122
0.493626351918778739
0.518909409539509148
0.548229754936313984
0.580976455611850739
0.616603850654514951
0.654641783113124376
0.694694399460637158
0.736433053288151007
0.779586983086256402
0.82393384158477323
0.869291076284947284
0.915508527648722037
0.533918949321378178
0.536576079311115839
0.544469670617402035
0.557377290929980784
0.574961351358119988
0.596808642326462691
0.622470436602771127
0.651496141371706305
0.683457305827429806
0.71796200766088214
0.754661439911228582
0.793251046152617545
0.8334683224001046
0.875088884374356391
0.917921867892663168
0.961805304853557419
0.622724251837970866
0.625003950604798186
0.631793693862908401
0.642950615387496649
0.658252690794554729
0.677419076302307577
0.70013248305385789
0.726060101923345247
0.754870808994231202
0.786247730570435732
0.819896297266675678
0.855548520894600317
0.892964441524499275
0.931931652503697139
0.972263649911006222
1.01379756057467452
0.711550428533128665
0.713546394280094143
0.719501070272627774
0.729317497627527844
0.742842596689763157
0.759878360961009469
0.780194855369912732
0.803543272091464256
0.829667678525639385
0.858314634819702271
0.88924038189351462
0.922215696094713433
0.957028741650781889
0.993486347896532673
1.03141413770453538
1.07065587951763419
0.800390529679106066
0.802165471984705003
0.807466889586054615
0.816226071624767457
0.828333333333333366
0.843644540734491688
0.861988979047876303
0.883177659238376545
0.90701127029626516
0.933287201240861286
0.961805304853557419
0.992372297969757788
1.02480485947325617
1.05893158943867149
1.0945940394096394
1.13164702977562759
0.0500000000000000028
0.0731057073315376921
0.117803980313815282
0.167630546142402137
0.219114379060597303
0.27131367660166178
0.323882694814032979
0.376666666666666705
0.429586364360467599
0.482597140480546138
0.535671955999606597
0.588793493321536077
0.641950153828161452
0.695133879990833981
0.748338901241350163
0.801560977094069926
0.101986443059365661
0.115089873630765976
0.147577140322202399
0.189739912954289186
0.236457915238657945
0.285503670167324364
0.335858950406121015
0.387012935630941191
0.438686310491159137
0.490715023784580318
0.542996941991707449
0.59546537459845561
0.648075022329900774
0.700794082223167969
0.753599592409000985
0.806474571556909825
0.184675223762162916
0.192222222222222239
0.213266772023638806
0.244345939748556007
0.282163160924164713
0.324370235044333377
0.369465747088420837
0.416512564095469717
0.464918683982531888
0.51430043580732554
0.564401791914279305
0.615046921827418491
0.666111806134379481
0.717506828805633212
0.769165813971679491
0.82103893834068864
0.27131367660166178
0.276505977431873162
0.291528538721149699
0.314977953373106967
0.345140873010169935
0.380423740350444239
0.419536781595024388
0.461507192672973354
0.505623927000646955
0.551372026050570674
0.598377435700541471
0.646365909442081388
0.695133879990834092
0.744528187661301577
0.794432012334738591
0.844755059831612587
0.359053969601256129
0.362993384968465005
0.374563120000084293
0.393090006342592946
0.417649211896216621
0.447248101390638475
0.480957121879299898
0.517974450010999621
0.557641638985885146
0.599432859531757511
0.642934053796238247
0.687820856665598335
0.733839051213833859
0.780788616846794792
0.828511233597668872
0.876880694898923951
0.447248101390638586
0.450416816562143163
0.459791955100683269
0.47500617279939733
0.495521922127207248
0.520712949050282425
0.549937145678968453
0.582587883477942547
0.618122405872797542
0.65607230104427583
0.696042605478985998
0.737704983021877592
0.780788616846794792
0.825070891080664781
0.870368873127159826
0.916531976636675183
0.535671955999606597
0.538320433281970878
0.546188815541129746
0.55905674528123217
0.576589590224759085
0.598377435700541471
0.623974714587413715
0.652933551153731306
0.684827634437227495
0.719266601785766624
0.755902698029904396
0.794432012334738591
0.834592382210887829
0.876159549143622374
0.918942629088212337
0.962779540935745359
0.624227918173450913
0.626502145464486904
0.633275825849162199
0.644407087039831183
0.659675378453881467
0.678801594678645204
0.701470237306730304
0.727350171241430643
0.756111723405744507
0.7874392000828766
0.82103893834068864
0.856643608278809476
0.89401369890352389
0.932937085198284777
0.973227416865283246
1.01472188003765873
0.712866756375747368
0.714859046798824171
0.7208028788257278
0.730601815180936365
0.744103570383041646
0.761111111111111072
0.781395554342152021
0.804709133863569903
0.830796880585214725
0.859406197525756199
0.890294028279491223
0.923231709877567419
0.958007835221444837
0.994429546753710647
1.03232268378486691
1.0715311532315237
0.801560977094069926
0.803333333333333344
0.80862709438762792
0.817373843476777773
0.829464351923041465
0.844755059831612587
0.863075894692929113
0.884238529910214788
0.908044296521069771
0.934291175169711274
0.962779540935745359
0.993316554668136953
1.02571925983672574
1.059816545969684
1.09545018650375492
1.13247516529061243
0.0750000000000000111
0.0920295846151901742
0.130394699960457688
0.176705970470722951
0.226132950078291595
0.277012835643244359
0.328671568590895968
0.380792302676639993
0.433208315299284719
0.485824042221049468
0.538580954401884138
0.591441271621940268
0.644379546540701509
0.697378025973797944
0.750423954249270442
0.803507933999409896
0.116302341196990677
0.12794795431090597
0.157810051472265289
0.1978035251655067
0.242976018732327464
0.290924982906268059
0.340479418714114468
0.391029426444710226
0.442233737985180952
0.493888888888888933
0.545866905950842307
0.598083616516686623
0.650481540528170088
0.70302016022231717
0.755670130201672396
0.808409694751306973
0.192950610964580632
0.200185870420590328
0.220471576511310691
0.25065900796022661
0.287647439381469305
0.329152015613934923
0.373670895671050329
0.4202472082588804
0.468267426494785532
0.517329622457099347
0.567163453261975703
0.617582153279531476
0.668453392744479236
0.719681213720850255
0.771194560005914576
0.822939814489252353
0.277012835643244359
0.282100257985623937
0.296839837098878789
0.319900158035458182
0.349638702408961333
0.384509066501977581
0.423244741386247014
0.464880510334525543
0.508704782320311577
0.554198620632631256
0.60098299107009312
0.648778767291970593
0.697378025973797944
0.746623882702811881
0.796396397670294798
0.846602687871418902
0.363379626680445267
0.367272647403620589
0.378711672468908134
0.397045026522710343
0.421373782048113321
0.450728148885257529
0.484194953594541067
0.520982275000021033
0.56043661330329253
0.602033847126903443
0.645359742725609031
0.690088784769175567
0.735965184697224606
0.782787240696685704
0.830395004920869484
0.878660772475031937
0.450728148885257529
0.453872568726041536
0.463177764983714102
0.478284292233741415
0.498665193600517975
0.523705046098127625
0.552771077569667146
0.585263737109440907
0.620645074613482617
0.658449591234994247
0.698283831004252509
0.739820006471377245
0.782787240696685704
0.826962499336361789
0.872162241391268966
0.918235190023520609
0.538580954401884138
0.541215196468917359
0.549042095127707186
0.56184468000012644
0.579293151656012251
0.60098299107009312
0.626473817844324987
0.655322227779755906
0.687105442336828687
0.721435682818949875
0.757966944456609504
0.796396397670294687
0.836462458478827831
0.877941088886694865
0.920641382708574429
0.964401080694357371
0.62672601176842857
0.628991206831705174
0.63573836725884203
0.646827251920603974
0.662039730634251034
0.681099555820051661
0.703694176348760525
0.729495216985648565
0.758175400729676152
0.78942098643699643
0.822939814489252353
0.858465649635987704
0.895759729965106555
0.934610402755218561
0.974831577729338705
1.01626054426370427
0.715055251253830737
0.717041460997984048
0.722967350662156005
0.732737341989391888
0.746200457958041019
0.763161269625752259
0.78339262974939905
0.806648492296029085
0.832675481078987589
0.861222394243019496
0.89204733999386121
0.924922586016503789
0.959637437965859763
0.995999559968171022
1.03383515294112072
1.07298835610908627
0.803507933999409896
0.805276005133919615
0.810557078667367925
0.819283223311694564
0.831345963550140343
0.846602687871418902
0.864884385337138628
0.886003824922769634
0.909763400255497512
0.935962071881120572
0.964401080694357371
0.994888324274527669
1.02724145165584146
1.06128983369818042
1.0968756133268307
1.13385404704485682
0.100000000000000006
0.113333333333333341
0.146211414663075384
0.188679622641132111
0.235607960627630564
0.284800124843917701
0.335261092284804274
0.386494214416953197
0.438228758121194606
0.49030602688525049
0.542627353203323559
0.595128370839248189
0.647765389628065957
0.7005077523561829
0.75333333333333341
0.806225774829854913
0.133795495319914387
0.144033603760878232
0.17111111111111113
0.208569495775152242
0.251818080524438048
0.298349368491056699
0.346844683637937967
0.39658418065485046
0.447152858665071873
0.498298338917461447
0.54985969029593873
0.601730016158143033
0.65383578562808975
0.706124879662947791
0.75855938836653547
0.811111111111111116
0.203972886118731322
0.210830222492054964
0.230179747261531953
0.259239152659479555
0.295154280644404798
0.335732109549736202
0.379479825908578372
0.425420634254360941
0.472915830477315891
0.521540926746506539
0.571007340334648728
0.621114092618564428
0.67171790081224203
0.722714362236365204
0.774025871261882381
0.825593688367107781
0.284800124843917701
0.289750850828009721
0.304119859412187887
0.326666666666666661
0.355840163868867188
0.39015666369065416
0.428381968704462546
0.469562444078408914
0.512986896085616872
0.558131804425362588
0.604611904907235154
0.652141770544479749
0.7005077523561829
0.749548011952684945
0.799138424944153436
0.849182613523799867
0.369350447524325831
0.373181185928315839
0.384444444444444478
0.402516773670886618
0.426533544047277613
0.455555555555555547
0.488691879497112014
0.525164289403037721
0.564326321848329426
0.605656464579071296
0.648740470088666754
0.69325141966259074
0.738931494176841674
0.785576771676410379
0.833025128190939435
0.881146839684748495
0.455555555555555658
0.458666881998226861
0.467876738014734728
0.482836270590280892
0.50303277756885989
0.52786548978754233
0.556714347037626567
0.588989509223474039
0.624159682006115712
0.661763450333675451
0.701409515648294679
0.742770921600535372
0.785576771676410379
0.829603504879675713
0.874666779584455378
0.920614394954549442
0.542627353203323559
0.545242046149128967
0.553011954863746324
0.565724707295380935
0.583057077442299398
0.604611904907235154
0.629955906746213934
0.658651821695060868
0.69028174602033987
0.724461485825467766
0.760847480700888479
0.799138424944153325
0.839073563190048777
0.880429188268741836
0.923014385345946708
0.966666666666666674
0.630206707221654838
0.632459436068120606
0.639169986470687124
0.650200348990340515
0.665335708449705687
0.684303737340569929
0.706795935066947489
0.732487727955177692
0.761055147983117575
0.792187158332650965
0.825593688367107781
0.861010029909604735
0.898198471289703648
0.936948026807395418
0.977072978307286899
1.01841076871130976
0.718107939202512258
0.720085728778263934
0.72598676993693001
0.735716665806667169
0.749126240000168586
0.766022273473030424
0.786180012685185892
0.809355787106916802
0.835298423792433242
0.863758653991772762
0.89449620278127695
0.92728463274415196
0.961914243758599796
0.998193429880597005
1.03594890002199924
1.07502512172771048
0.806225774829854913
0.807987898699259355
0.813251361989500654
0.821948903521380725
0.833973087761896048
0.849182613523799867
0.867409937688057742
0.888469345435045299
0.912164702476720879
0.938296328459192086
0.966666666666666674
0.997084639224663727
1.0293687385966217
1.06334900719900594
1.09886810451077843
1.13578166916005485
0.125
0.135902334212641279
0.164325219542764578
0.203039405042469534
0.247257176055844963
0.294509950784538233
0.343547667726037731
0.393703921466090845
0.444600319887924145
0.496009072497671177
0.547785947651493244
0.599835625632370806
0.65209278480903321
0.704511256908724737
0.757057534875065663
0.809706737035082336
0.153382641025316929
0.162390513923522273
0.186826155411063954
0.221644387630053119
0.262749587400270435
0.307631834631938494
0.354860866492631544
0.403613691970030997
0.453399028464271936
0.503910939123076829
0.554951060015516751
0.606386025849605992
0.658123267000872314
0.710096715721888483
0.762258057142731982
0.814571196745810244
0.21732449993409611
0.223773060746930347
0.24209030556670938
0.269870224870408681
0.30453415142265422
0.344007339140774804
0.386820291959463991
0.431981152423786652
0.478826046405215255
0.526906005158040425
0.575911783796832388
0.625625859479435831
0.675891957543219402
0.726595519792625932
0.777650981728124746
0.828993328243119887
0.294509950784538233
0.29930010951477376
0.31323136638735416
0.335165796451713016
0.363658111723390853
0.397299914702007262
0.434897816861744169
0.475514341412421437
0.518440503390269036
0.563148391732686271
0.609245890881141339
0.656440316318923855
0.704511256908724848
0.753290928010036609
0.802650124414257093
0.852488188253134105
0.376888250130485991
0.380643136718454733
0.391691882561022109
0.4094444444444445
0.433077203507100883
0.461688059405407303
0.49441354460251169
0.530492724610053035
0.569288325482671609
0.610282519073273022
0.653061404104441134
0.697296587446258442
0.74272791322692322
0.789148822591487442
0.836394562510739292
0.884332942441035552
0.461688059405407303
0.46475833359066876
0.473849809512791376
0.488626507874399818
0.508593133367569172
0.533166930059096988
0.56174359292966658
0.593745435330082172
0.628649591300253219
0.665999898046186534
0.705407902310411727
0.746547816268528508
0.789148822591487553
0.832986779792237897
0.877876400929334721
0.923664367721052204
0.547785947651493244
0.550376134010995055
0.5580745669014332
0.570674552126204881
0.587861000199499162
0.609245890881141339
0.634404795414130307
0.662908155193630333
0.694344214989142783
0.728333333333333388
0.764535080221234065
0.802650124414256982
0.842418805846857022
0.883617878698453874
0.92605645376270429
0.969571784059563235
0.634653837794399989
0.636890837013381006
0.643555181476257232
0.654511645295300037
0.669549553758548743
0.688401485281860626
0.71076402119631843
0.736317371521912678
0.764741746128459354
0.795729535600608884
0.828993328243119887
0.864270369505363956
0.901324300031437375
0.939945001017757242
0.979947245997595417
1.02116869019137124
0.722013858832141087
0.723980978196336
0.729850525877358547
0.739529588553209383
0.752871252909015132
0.769685080703004232
0.789749335134686259
0.812823344967070316
0.838658724863769245
0.867008657595573773
0.897634924003140378
0.93031273780565682
0.964833670818799227
1.0010070546488623
1.03866025410467588
1.07763816392408773
0.809706737035082336
0.811461301877325902
0.81670238017149055
0.825363556258695064
0.837338707519908798
0.852488188253134105
0.870646311655887128
0.891629282705417858
0.915242833593601257
0.941289009815795108
0.969571784059563235
0.999901384026333773
1.03209737912660171
1.06599067121204749
1.10142458257981124
1.13825524378322096
0.150000000000000022
0.159199385816794048
0.184059169230380348
0.219317121994613118
0.260789399920915377
0.305959329178096984
0.353411940941445901
0.402340375525223448
0.452265900156583189
0.5028916384272063
0.554025671286488719
0.605539245448036834
0.657343137181791937
0.709373745715973891
0.761584605353279986
0.813941029804985394
0.174359498071946839
0.182333976571416007
0.204399149571809657
0.236645799810394353
0.275521951355989669
0.318610021309770453
0.364419037054736272
0.412042488519908656
0.460918299715194324
0.51068702212598005
0.561111111111111116
0.612028604189117198
0.663325888660997065
0.714921216414097227
0.766754423318843692
0.818780333525360948
0.232604682393981355
0.2386406979457808
0.255895908621811941
0.282320630262127614
0.315620102944530578
0.353858798650981798
0.395607050331013399
0.439866702592254299
0.485952037464654929
0.533390043281279258
0.581849965812536118
0.631096439579073132
0.680958837428228936
0.731311185052379908
0.782058852889420453
0.833129604726422501
0.305959329178096984
0.310572947237127472
0.324019889650140003
0.345269620892297902
0.372990914396345907
0.405859855396197344
0.442731420966607225
0.482689225992137594
0.525029099722630233
0.569219738862867586
0.614862224856557282
0.661656171201394416
0.709373745715974002
0.757840499196382522
0.806921447367847877
0.856511010501973313
0.385901221929161264
0.38956924613072863
0.400371740841180657
0.417755614069302172
0.440943153022621381
0.469074476173593213
0.501318015920453219
0.536933451057202804
0.575294878762938611
0.615889400043887592
0.658304031227869846
0.702209036444417678
0.747341791342100659
0.793492825548871017
0.840494416517760801
0.888211547485406094
0.469074476173593269
0.472096715347581464
0.481049521333623886
0.495611606197363941
0.51530765112565724
0.539575736397256867
0.567829960637452613
0.599506999104521543
0.634094085007876007
0.671141463625613666
0.710264252684854824
0.751138230937094975
0.793492825548871017
0.837103324153381956
0.881783406120030144
0.927378490260331034
0.554025671286488719
0.556586820620906253
0.564200515971247873
0.576666666666666661
0.593679674197757579
0.614862224856557282
0.639800316070916364
0.668073515582096933
0.699277404817922665
0.73303781924566791
0.769018133003955162
0.806921447367847655
0.846489482772494028
0.887499608763607117
0.929761020669051086
0.97311070513300002
0.640047259057610951
0.642265473360981054
0.64887461932559698
0.659742748218698161
0.674664068213412182
0.693376957317065501
0.71558402289819234
0.740971167863459068
0.769223594458467552
0.800037807748584129
0.833129604726422501
0.868238602922571268
0.905130097735767913
0.94359504287499929
0.983448831886169716
1.02452940115311519
0.726759253360890534
0.728713562924502956
0.734545294807241178
0.744163296827839438
0.757423344937816267
0.774138310288794762
0.794090053045420685
0.817041486170351661
0.842747564096226642
0.870964415085759391
0.901456297770515058
0.934000422978200184
0.968389907189082133
1.00443522611305824
1.04196455000004207
1.0808233030175094
0.813941029804985394
0.815686486613848794
0.820900589461219576
0.829517932295619653
0.841433961229941851
0.856511010501973313
0.87458561616344932
0.895476285435732766
0.91899099258069139
0.944933860119320679
0.97311070513300002
1.00333333333333341
1.03542261903050981
1.06921050832430153
1.10454113147094324
1.14127122105133272
0.175000000000000017
0.182946561718017681
0.204945792290980644
0.237118114027587534
0.275927728057749067
0.318960986816744008
0.364725924496737741
0.412313931098353514
0.461160974546247215
0.510906057901058808
0.561310470634963643
0.612211383247467711
0.663494536526112011
0.715077695856269346
0.766900326712090519
0.818916967707959964
0.196281009188105704
0.203397834335436539
0.223392059719406788
0.253231582879982098
0.289891955181602712
0.331115305715414421
0.375401431227827487
0.421786690574369627
0.469649527852786908
0.518580981687432607
0.568305093248640314
0.618630756061868459
0.66942231406482211
0.720581255431344436
0.77203454953713857
0.82372703887143417
0.249459291812521855
0.255096810478001423
0.271307419819994455
0.296361161881250834
0.32823931724081451
0.365158937153010177
0.405746150039165476
0.44900747883457659
0.494241219159277934
0.540952805955940086
0.588790610247861723
0.637501149841616099
0.686898783134462287
0.736845336134195894
0.787236336421735627
0.837991609905257451
0.318960986816744008
0.32338917043641946
0.336324083123538564
0.356841857285704556
0.383728057642677811
0.415748989442214112
0.451814244032999857
0.491033490598033362
0.532710573910031959
0.576312511673233607
0.621434272916738695
0.667767840562039083
0.715077695856269457
0.763182299468627812
0.811940405585423686
0.861241029625917975
0.396288724399798897
0.399861472926392625
0.410393141833775676
0.427369574357393589
0.45006206705023577
0.477656638389472032
0.509357195969998844
0.544446995458876204
0.582313659062591693
0.622450602928794505
0.664446534742159867
0.707970713281416475
0.752758097323715236
0.79859618343536487
0.845314062462899529
0.892773629251233936
0.477656638389472032
0.480624914712060425
0.489421742442352814
0.503741862661354456
0.523131890930616072
0.547052991316784643
0.574939878767798507
0.606245529447689058
0.640468819414321988
0.67716753037747679
0.715961108330596008
0.756527357056774652
0.798596183435364981
0.841942382416185353
0.886378573358270083
0.931748820336001815
0.561310470634963643
0.563838530865786836
0.571355600499568239
0.583668951071105502
0.600483601404364409
0.621434272916738695
0.646118754134597517
0.674127007486143071
0.705063038946794451
0.738559032470962662
0.774282822287107764
0.811940405585423686
0.851275187259939226
0.892065331439102382
0.934120204018495492
0.977276544507461598
0.646363283167570302
0.648559895670095421
0.655105542340269298
0.665871980058600044
0.680658949062062701
0.699211416481647419
0.721238860452735553
0.74643370208273585
0.774486887088222442
0.805099679435509752
0.837991609905257451
0.872905075941787789
0.909607329470888071
0.947890608107429089
0.98757106323457633
1.02848699254154918
0.732327803886810624
0.734267292469250266
0.740055261533526854
0.749602569596502288
0.762768066621034024
0.779368413176201424
0.7991895972456593
0.821998655791758015
0.847554397540431381
0.875616361396747145
0.905951685682036434
0.93833991182484433
0.972575967390557738
1.00847167707218754
1.0458561676716307
1.08457549868401482
0.818916967707959964
0.820651841187506559
0.825834594684539569
0.834400982741511421
0.8462482561938377
0.861241029625917975
0.879218402901122298
0.900001543208553523
0.923401020383042836
0.949223366758320086
0.977276544507461598
1.00737419947990414
1.03933873207920047
1.07300331365336965
1.10821302605190097
1.14482531418553113
0.200000000000000011
0.206988995950133647
0.226666666666666683
0.256124969497313948
0.292422829326150768
0.33333333333333337
0.377359245282264222
0.423530137980495824
0.471215921255261128
0.520000000000000018
0.569600249687835403
0.61982076262237118
0.670522184569608548
0.721603153479189796
0.772988428833906394
0.824621125123532139
0.218863506706580113
0.225268015955096657
0.243472816440930467
0.271111111111111136
0.30563433327918571
0.344981659916889449
0.387687031725206521
0.432757452097221607
0.479526515442416035
0.527542637677658521
0.576494300936570947
0.626162129440673731
0.676388375541671638
0.727057319390302492
0.778082479997469489
0.829398115845401018
0.267590990639828774
0.272854141834148078
0.288067207521756463
0.311777065018588151
0.342222222222222261
0.377777777777777768
0.417138991550304483
0.459328549133822872
0.503636161048876096
0.549549759595621135
0.596698736982113398
0.644812155630911432
0.693689367275875934
0.743179688489073342
0.79316836130970092
0.843566795382324708
0.33333333333333337
0.337573037364591044
0.349984126624178327
0.369744656636321278
0.395755255457488797
0.426874949162189932
0.462072625364358835
0.50048865010995891
0.541438413446585387
0.584389520021629916
0.628932075470440388
0.674750982873599803
0.721603153479189907
0.76929982596008839
0.817693232344638199
0.866666666666666696
0.407945772237462645
0.411417303392631106
0.421660444984109928
0.438200585447372282
0.460359494523063906
0.48737138221025128
0.51847830531895911
0.552989629978897113
0.590308561288809597
0.629936308753845209
0.671464219099472404
0.714561075671070633
0.758959651817156744
0.804444444444444517
0.850841268508721882
0.898008771163411157
0.487371382210251392
0.49028084670112837
0.498907448306104895
0.512962829255230623
0.532016893818835435
0.55555555555555558
0.583035903009009315
0.613928857421858543
0.647746330473569998
0.684054723101544582
0.722478586978171577
0.762698264043723095
0.804444444444444517
0.847491578311337701
0.891651263279900408
0.936766173704799643
0.569600249687835403
0.572091678744664933
0.579501701656019441
0.591645539528901088
0.608239718824375775
0.628932075470440388
0.653333333333333321
0.681044948753180557
0.711680327737734375
0.744878811918049166
0.780313327381308319
0.817693232344637977
0.856763937408925091
0.897304605780866127
0.939124888156817828
0.982061324177082362
0.653575163104566315
0.655747617816187733
0.662222222222222268
0.672874798032413013
0.687511167137139445
0.705883563300826355
0.727709072244643984
0.752687366444354744
0.780515815516639622
0.810901038245210537
0.843566795382324708
0.87825865871333042
0.914746136273425714
0.952822966210550515
0.992306205230155669
1.03303460437061867
0.738700895048651662
0.740623694456316706
0.746362371856631679
0.755830015509888931
0.768888888888888955
0.78535986875876862
0.805033547341773237
0.827681575319552998
0.853067088094555226
0.880953467752797259
0.911111111111111094
0.943322209069338502
0.977383758994224028
1.01310913699205685
1.05032857880607544
1.08888888888888902
0.824621125123532139
0.826344023058462329
0.831491297475672853
0.84000000000000008
0.851769400196503379
0.866666666666666696