# vtk DataFile Version 2.0
SG Distorted Ellipsoid: dims 16 10 33  center 7.5 4.5 16  noise yes
ASCII

DATASET STRUCTURED_GRID
DIMENSIONS 16 10 33
POINTS 5280 float
-0.00870156 -0.264864 -0.0913715
1.1026 -0.174192 -0.0346475
2.11793 -0.249557 -0.100983
3.11578 -0.31014 -0.120444
4.05968 -0.226356 -0.124532
4.97376 0.0258437 0.0422173
5.97272 -0.0788382 -0.0848423
7.00809 0.081871 0.106252
7.92203 0.166818 0.0609248
9.05028 -0.103723 -0.042583
9.87899 -0.0102114 0.0416621
10.9515 0.16403 0.0935057
11.9897 -0.0552866 -0.0940983
12.9084 0.283794 0.102962
13.9658 -0.177725 -0.0743379
15.0745 -0.0143168 0.000750518
-0.0593619 1.24473 0.0711446
1.03018 0.944775 -0.0583183
1.95607 1.07252 0.0448259
2.94656 0.838473 -0.10823
4.00726 0.896718 -0.0469469
5.0898 0.82242 -0.0959394
6.05966 1.04772 0.057488
6.99721 0.834817 -0.0956899
8.10095 1.03493 0.0140749
9.0371 1.16849 0.0560584
10.093 1.01706 -0.0270962
11.106 0.992501 -0.0717918
11.9744 1.03214 0.0447803
13.0213 1.09636 0.00996425
14.0299 1.0872 0.044984
14.9258 0.989089 -0.0201929
-0.0590229 2.01234 -0.0270197
1.12022 2.11077 0.0693398
1.96938 2.04461 0.0100833
2.91481 1.95234 -0.0535596
3.93261 1.77755 -0.120851
4.95879 2.25475 0.113177
6.0048 2.11768 0.0309193
7.03125 2.08572 0.114219
8.01672 2.09057 0.0951393
8.97187 1.96858 -0.0670387
10.0635 2.23725 0.0772508
10.9036 1.9874 -0.0109687
12.0844 1.79598 -0.0647904
12.9798 1.73934 -0.0869272
13.9059 1.94219 0.00594432
14.8865 1.97444 -0.0411925
0.0819562 2.89408 -0.0198526
1.03281 2.88592 0.000315742
1.99747 3.09229 0.0809566
2.89451 2.96805 -0.0481269
4.118 2.95126 -0.0706204
4.98027 2.85984 -0.0481183
5.95823 2.77418 -0.0613629
7.08687 2.71994 -0.0956795
8.02828 2.95727 -0.0349339
9.0871 2.89737 0.00415919
10.1127 3.13401 0.0177582
11.0997 2.80725 -0.0406303
12.0628 3.21132 0.10108
12.9883 3.09022 0.0629735
13.9927 2.73318 -0.117431
15.102 2.99908 0.0147948
-0.0591347 4.26163 0.0982809
1.02269 4.20095 0.111406
2.08229 3.98933 0.0627802
3.07396 3.91536 -0.0652858
3.94676 4.01254 -0.0273756
4.90454 4.19629 0.045767
5.94603 3.85787 -0.0328221
7.09393 3.89805 -0.0210569
8.10946 3.95371 0.00140028
8.97346 3.84928 -0.123192
9.9828 3.93306 -0.0809678
10.9957 3.99753 -0.0258307
11.9742 3.80212 -0.0555596
12.9502 3.99606 0.039281
14.0731 3.90878 -0.0832056
14.9531 3.68308 -0.115554
0.0595415 4.92993 -0.0943112
0.9334 4.92384 -0.057354
1.9164 5.2158 0.0939209
2.87573 4.96818 -0.0451823
4.00848 5.10863 0.10746
4.99412 5.15314 0.0724352
5.92761 5.15939 0.0968905
7.09792 5.01412 0.0777449
7.88684 4.89999 -0.0836306
8.89513 4.66672 -0.119359
9.99797 4.86129 -0.0985288
11.0631 4.82855 -0.0382587
12.0774 5.02601 -0.0200676
13.0263 4.87307 -0.0762465
13.8863 5.07482 0.0585586
14.8942 4.94639 0.0401441
-0.111372 5.95228 0.00466689
1.1118 5.86297 -0.10521
2.05108 6.30079 0.11304
3.08902 6.21157 0.113022
3.91759 6.00564 0.00606908
5.10449 5.8713 -0.0238986
5.89178 5.71723 -0.108671
6.89344 6.15037 0.0901839
7.93739 6.06074 0.103683
8.96455 5.8852 -0.0502126
9.93926 6.11765 0.0457576
10.9577 5.94035 -0.0606723
11.9938 6.12052 0.0887164
13.1214 5.79913 -0.046497
13.919 5.93501 -0.0992615
14.947 5.99806 0.0623287
-0.0127175 7.09723 -0.00989844
0.886835 6.93765 0.00908224
2.09749 6.88639 -0.0134141
2.95956 6.74505 -0.110856
3.96128 6.86168 -0.0822227
4.96835 7.01677 0.0269395
5.9281 6.7928 -0.0494567
6.88929 6.84014 -0.0869544
8.0404 7.27133 0.11932
9.1016 6.87567 -0.0405715
10.0211 6.79879 -0.0493108
10.9496 6.99283 0.0309724
11.9422 6.90305 -0.0997225
13.1156 7.15199 0.0243187
14.0069 6.98192 0.000154427
14.893 6.90474 -0.0326924
0.0789143 7.94928 -0.00311567
1.06842 8.034 -0.0349406
1.96682 8.19658 0.115861
3.04468 8.2331 0.109987
4.00555 8.21924 0.0968552
5.03007 7.71109 -0.123463
6.02262 7.89967 -0.074279
7.02861 8.05108 -0.00854253
7.8903 8.09605 0.0140764
9.01435 7.9531 -0.0656924
9.9223 8.24615 0.109933
11.1086 7.9588 0.0387513
11.8761 7.9368 -0.0269846
12.9664 7.88559 -0.0232798
13.9025 7.81425 -0.111654
15.018 7.87656 -0.037793
-0.123953 9.02656 -0.0498385
0.985009 9.03542 -0.00537015
2.00797 8.85008 -0.0945133
2.95363 8.74992 -0.0903161
3.90065 8.85406 -0.0182561
4.98952 9.09053 0.0733275
5.88934 9.14177 0.0551507
6.89964 9.02235 0.0463197
8.08997 9.17749 0.0481475
9.00122 9.09378 0.108566
9.88544 8.70161 -0.10421
10.895 9.02179 -0.0390822
11.9209 8.97987 0.00701388
13.1248 8.86743 -0.0901415
14.0263 8.89254 -0.111668
15.0757 8.74139 -0.0887596
-0.10012 1.5841 0.954942
0.890922 1.77888 0.973169
1.9634 1.90347 1.03761
2.90576 2.01302 1.10716
3.93954 1.69623 1.01535
5.02691 1.85497 1.06436
5.96169 1.63059 0.993959
6.9854 1.75168 1.05358
8.05609 1.58776 0.880518
8.9369 1.56921 0.878905
9.96262 1.80894 1.00055
11.1213 1.67019 0.913018
12.0703 1.60439 0.884891
13.0151 1.81732 1.08088
13.9325 1.48792 0.916068
14.9512 1.9455 1.10998
0.0826475 2.86226 1.07409
0.88706 2.6655 1.01088
1.9768 2.77948 1.05869
3.10177 2.72386 0.98804
3.98564 2.77059 1.05853
4.99287 2.7305 1.0223
5.98025 2.76106 1.02259
7.06315 2.81946 1.1033
8.0311 2.49956 0.888432
9.1168 2.68423 1.00557
10.0466 2.64941 0.998559
11.0599 2.72531 0.970528
11.9146 2.69298 0.899126
12.8966 2.79377 1.00988
14.0812 2.7608 1.00781
15.0652 2.74751 1.02679
0.00334876 3.87115 1.05621
1.06093 3.62627 0.930125
1.9483 3.98809 1.0982
2.96552 3.71956 1.04078
3.94851 3.72399 0.911508
4.91047 3.52101 0.898963
5.926 3.70207 1.03147
7.07661 4.01595 1.07889
7.95852 3.79907 1.08472
8.94735 3.61821 0.978154
9.88949 3.79212 1.00448
11.0367 3.76974 1.01407
11.9871 3.81859 1.08676
12.9834 3.82432 0.97303
14.0729 3.5273 0.877087
15.1227 3.78757 0.98315
-0.0800553 4.57529 0.887497
1.11461 4.86839 1.07707
2.09577 4.91881 1.10104
2.87661 4.77449 1.00934
4.09878 4.67192 1.02021
4.94827 4.72494 0.919352
6.11042 4.73209 0.991868
7.11697 4.54077 0.90953
8.04092 4.59869 0.913256
9.03189 4.79537 1.02566
10.1245 4.675 0.966004
10.9108 4.73449 0.970778
12.1234 4.613 0.904885
13.0137 4.57055 0.879068
14.063 5.08036 1.11752
14.8759 4.88731 1.05699
0.0736027 5.85095 1.10398
1.06177 5.76934 0.978245
1.89293 5.73208 1.01813
3.07631 5.67483 0.937268
4.02591 5.75248 1.00735
5.08617 5.83791 1.04246
6.04663 5.54233 0.935326
6.96072 5.69162 0.961104
8.11242 5.71015 1.0153
9.01462 5.89508 1.06292
10.1165 5.72198 0.941429
10.9054 5.62883 0.907805
12.0463 5.94464 1.04277
13.0207 5.88611 1.08667
13.8859 5.70106 0.980167
14.8774 5.89103 1.05573
0.0530763 7.02828 1.11328
0.887079 6.5756 0.915339
2.11784 6.75873 0.961796
2.99195 6.59677 0.940311
4.10515 6.60002 0.980259
5.00819 6.81746 0.977787
6.03796 6.83487 1.02672
6.92517 6.61955 0.943678
8.02013 6.85545 1.12205
9.10716 6.60684 0.927763
10.0319 6.78742 1.02529
11.0651 6.77942 0.996637
11.9473 6.74444 0.979119
13.1212 6.93346 1.03289
13.9829 6.71018 0.966609
15.0187 6.80355 0.968286
0.0698055 7.88793 1.08741
1.1244 7.82755 1.05402
2.05755 7.67569 0.895494
3.03741 7.82374 1.00761
3.90223 7.51058 0.880197
5.06885 7.50724 0.908852
5.98299 7.63144 0.878319
7.11481 7.79319 1.02586
8.02118 7.94992 1.0411
9.0353 7.79959 1.07597
10.0806 7.67807 0.897619
10.9295 7.53984 0.929156
11.8997 7.77846 0.955223
12.9499 7.98705 1.10532
14.0373 7.80379 1.04152
14.9559 8.02268 1.11754
0.0568243 8.82973 1.05046
1.12196 8.88491 1.07493
1.97738 8.73078 0.989621
3.00983 8.5937 0.943585
4.00712 8.68145 0.950297
4.99245 8.59512 0.88769
5.95877 8.88736 1.06491
6.94435 8.59896 0.909052
8.01489 8.80195 1.01715
8.95555 8.73479 0.963485
9.94256 8.8858 1.03484
11.0737 8.69475 0.929077
12.0015 8.84119 1.09755
12.9289 8.71738 1.00292
14.0366 8.87051 1.0809
15.092 8.9475 1.04766
0.0670602 9.88053 1.09801
1.07586 9.96638 1.0676
2.02571 9.94694 1.08773
3.01511 9.46737 0.875412
4.10055 9.77817 0.961721
5.02668 9.52799 0.92657
5.9559 9.98841 1.1123
6.88657 9.73944 0.926938
7.99175 9.91442 1.05969
8.95385 9.60053 0.907931
9.9592 9.6228 0.933032
10.9802 9.89937 1.06478
11.9572 9.72174 0.985569
12.8765 9.45103 0.893367
14.04 9.64195 0.984676
15.0933 9.63427 0.992866
0.00911305 10.6569 0.996959
0.975248 10.7029 1.01065
2.05762 10.802 1.04
2.91736 10.7464 1.06336
4.11945 10.6936 0.900246
5.08504 10.5308 0.875893
5.95233 10.7602 1.04435
6.95584 10.9485 1.04824
7.89359 10.6719 0.892998
9.05128 10.8404 1.03383
9.97606 10.6927 1.0065
11.018 10.5356 0.882117
12.1212 10.7399 1.02322
13.02 10.7144 0.986859
13.9952 10.633 0.94492
14.983 10.9522 1.08669
0.0710981 3.32067 1.97752
0.915331 3.31218 1.97383
1.92336 3.44839 1.97338
3.11995 3.48583 2.06383
3.95007 3.29216 1.87789
4.97449 3.52448 1.98959
6.07468 3.35148 1.88578
7.00044 3.4847 1.97309
7.8919 3.41763 1.9961
8.95407 3.43232 1.96861
10.0413 3.30866 1.88732
11.1176 3.35393 1.93822
12.0887 3.62036 2.03499
13.0402 3.40873 1.95907
14.0101 3.36033 1.92336
14.9164 3.51887 2.03367
-0.00436012 4.60903 2.09133
1.0468 4.44556 1.99033
2.08005 4.34523 1.88002
3.0482 4.56923 2.10732
3.88999 4.64667 2.09674
5.11772 4.1904 1.89191
5.90878 4.63317 2.08093
6.93951 4.60934 2.07596
7.90341 4.39103 2.01312
9.09761 4.41635 2.01883
9.97348 4.28595 1.91392
11.0448 4.19927 1.87991
11.9799 4.54359 2.06994
13.0896 4.51469 1.96834
14.0452 4.44127 1.95439
15.054 4.36917 2.02746
-0.0683982 5.55454 2.07218
0.992613 5.53726 2.10995
1.94739 5.47888 1.96867
3.01632 5.56574 2.11625
3.93267 5.52422 2.00465
4.99151 5.37046 1.97196
6.0832 5.48911 2.10076
6.89283 5.57531 2.01062
7.97496 5.26814 1.8767
9.09694 5.61953 2.11865
9.87605 5.28334 1.90932
10.9847 5.57171 2.02267
11.8786 5.33306 1.95955
13.0346 5.47546 2.07481
14.0604 5.29386 1.95237
15.0134 5.36945 2.01207
-0.0993607 6.24469 1.94843
0.875802 6.38184 1.95644
1.99098 6.44569 2.0355
2.97386 6.62025 2.09982
3.99086 6.62369 2.09489
5.0656 6.45138 2.04485
6.06263 6.46428 2.07315
6.96417 6.65338 2.10501
7.98191 6.60413 2.04974
9.02836 6.38194 1.90502
9.98839 6.38595 1.91202
10.9647 6.42825 1.94887
11.9478 6.49151 1.98788
12.9899 6.36123 1.93142
13.9544 6.54886 2.01425
14.9396 6.36218 1.9455
-0.0208399 7.39118 1.96858
0.91428 7.21116 1.92483
2.07889 7.36042 1.924
2.93912 7.33537 1.97578
3.98746 7.62615 2.11448
5.0885 7.44783 1.93084
[...]
POINT_DATA 5280
SCALARS scalars double
LOOKUP_TABLE default
0.683970265902459351
0.667640947356017089
0.633820784393919423
0.620248326489797552
0.594274600783494589
0.586587929709384337
0.579932974787730982
0.562828262516196554
0.56828860110872581
0.567559107752818814
0.593865208609530848
0.596178611556199667
0.612994889447561198
0.641115954224241724
0.669431013121397966
0.692691751040398818
0.635951468577858336
0.609530880755563609
0.581207109129530886
0.552550252242166695
0.539760669335114351
0.522386534904084265
0.507029608079919925
0.50104509747775916
0.516246647007788551
0.507629373857507837
0.51711986849173075
0.542353156670319358
0.565467713637430314
0.581905599272353191
0.61920668870844453
0.645791117778297785
0.602570313214561226
0.56998349922609215
0.541034559211251764
0.51612186806005278
0.500298755322861166
0.476985065333559111
0.466657897568879876
0.455528265418558898
0.454221025886088203
0.466481296158967773
0.477924453608705613
0.484829719220566224
0.517960227892816483
0.541386369666573941
0.581295049366473027
0.609778126477500737
0.585665631277987875
0.546103471265086959
0.515689194111540461
0.488632954993071855
0.463826106287201556
0.443549744278170788
0.437152170028454745
0.414701193098941101
0.425635164503970376
0.417449201431042638
0.444445187240817274
0.461545546747406665
0.483142213263335563
0.516944324879362815
0.552800763592967814
0.576491608603427297
0.571819591218614809
0.524756149863481181
0.49735358703954663
0.467605799483973184
0.438205454960859164
0.425252067858367611
0.401921834693046154
0.402103566437452153
0.399028748779981457
0.398942498908134047
0.429853565508514113
0.440363371983564234
0.463535956191736875
0.505762038119868862
0.535589184378862049
0.557513732606554235
0.566965770417833581
0.532065415000199882
0.492372813113765406
0.464631861495691967
0.455285227910077916
0.429182426745086387
0.408249654517264859
0.395125722199170915
0.401792115479200185
0.403243951544852763
0.421239979082732863
0.443131621495283012
0.470732916640955623
0.494184584506587643
0.530784191703080777
0.568778075868273003
0.586104168875644094
0.548031266675243156
0.515746872334196804
0.47471114102822809
0.455065425134857815
0.440340820938327049
0.426135629501111002
0.4237676603840973
0.418925264601626601
0.425353559341198895
0.438604427963473542
0.464850295282562886
0.489733094610991793
0.512211964039518963
0.543385785565624002
0.580284638388583573
0.608301209210655003
0.566529824909685842
0.541130689582345448
0.516252178118646543
0.495697620068954903
0.476636859767152865
0.468296996689973655
0.455639044227152679
0.463037859382181949
0.47298855934256151
0.474856521479799343
0.498670966779160008
0.513945030138910242
0.538499101600167673
0.567270085987566675
0.61609984278609442
0.64697472297238956
0.605695736712594912
0.586341691649062136
0.556732686324197923
0.539319079979645566
0.519899047111115564
0.506324346849451268
0.502200187809790477
0.500590213902319725
0.502739542314539101
0.526824763511262062
0.541730903252350626
0.565846436781961559
0.580863423979384397
0.615571739977975763
0.639641520610329084
0.685285878695428119
0.658424333586485888
0.633993819061888231
0.608482884595266338
0.587992557326463272
0.576961159689853065
0.566883353205699714
0.565027664371665295
0.56815890140169456
0.571272181483287622
0.581342930777499545
0.596092857161668377
0.61776753349052993
0.636918871704710399
0.666186079039366774
0.694070840395867528
0.677477207892007272
0.640889654812704213
0.622296256153876293
0.601958167323686233
0.574753235909851834
0.558898768345488683
0.559667140464891855
0.54809897909433869
0.549721427061867995
0.563279601554979803
0.56948659412063507
0.584792012307556841
0.595163714656449905
0.619874629109198549
0.655287142453085059
0.678630333654946738
0.630744734641486948
0.591402759303725323
0.560629287955561439
0.542524420441251709
0.515826999901137673
0.512629688151241103
0.492079233707773345
0.48906828275942521
0.487931941664454472
0.496165327610361195
0.503173568613887623
0.524054252861342662
0.543400866211515399
0.574110981223383665
0.591185989131606249
0.635516024466926344
0.583737342791519342
0.550554919162609457
0.531460741551508575
0.49439012628075657
0.466948202304717508
0.450119401973126276
0.446950389943481075
0.4362129333948086
0.441067803237337908
0.447760116658568963
0.45936933712327277
0.469613931827422559
0.49168747048852024
0.522095755131830819
0.55947389117799029
0.588376796679458747
0.548415923039092146
0.535603503668695802
0.492364347237999378
0.465450212761010618
0.441316121730786992
0.419828494746739278
0.407933192090634722
0.398287245179169969
0.397883325959199285
0.401716551618222617
0.426534484584385754
0.444670327815992084
0.457918455406274294
0.496402681130821644
0.527408217871576657
0.559173540989531648
0.546490758780150077
0.508583685708814515
0.47574502887912179
0.4485121511479922
0.432148253839980734
0.395351882474175353
0.388916884145472486
0.379342900537446071
0.377430192254975372
0.386923876485560425
0.393263926999321833
0.417440936487685821
0.449901292230755867
0.469436683084444029
0.50702414209919533
0.549616540793089525
0.543980687979368827
0.515736700845533247
0.473108004953340544
0.450381963159710963
0.426571776789199497
0.394125991360894101
0.382588453969691267
0.377208806299164812
0.382537308954194133
0.386069079122279168
0.406994090573540579
0.420052935999404575
0.444442002679974635
0.472702979471162799
0.509562899423414151
0.560724634054808324
0.560885710636748414
0.527062549078852083
0.499453275460655599
0.471059648796166852
0.43958669057844324
0.431150821406895535
0.403947901563290968
0.406884962464326261
0.408204676056855509
0.404152159528378851
0.417724975307042001
0.437506326351148334
0.466540586753930508
0.501201570290977894
0.540024489844232902
0.557497820774687902
0.586186988787613106
0.561319994846203207
0.518275621922602348
0.503739186339350331
0.484065817050811253
0.453989946406720024
0.450308239064574845
0.43554246220340237
0.441603386733431635
0.443486129842162735
0.458020154994366491
0.462673929386016314
0.499391022734613999
0.518427237065424595
0.552167677799084045
0.598917262988052479
0.628174239036018101
0.586473865260756622
0.562170120475092627
0.550613104523282937
0.516791660545668941
0.504048450358272393
0.492780222477304575
0.494129623091456471
0.483681758558985764
0.490181746067392454
0.514284713633418877
0.507338249443373912
0.540185839356046582
0.571975055930414866
0.588957290401137423
0.623272677298957634
0.679886570684976044
0.650266791043172976
0.623563040821845105
0.598786475429154974
0.574564942452820526
0.567865748325957376
0.547711268882860591
0.553892130949807493
0.555685477354836754
0.54558642528544854
0.568058066288603891
0.583300007913025609
0.606030108699418646
0.624271296589667291
0.648135958371053755
0.673603173010415501
0.655061511641787053
0.633217520582043281
0.609849002841505894
0.582740089367617231
0.564296432336171438
0.550265905730789373
0.533450533003745453
0.532414839493138614
0.530199396835667858
0.538049322218833392
0.539164278380935835
0.567469974358876583
0.586404621075380827
0.61271057892182812
0.640222430097424189
0.663646278029726533
0.619616301289738769
0.587346555549105864
0.549110485583833241
0.531538718948724731
0.510910485115130819
0.481866381960732448
0.476102712874188982
0.466054060037383588
0.468579828317412905
0.463675134901776864
0.49322080929837897
0.514772503700335893
0.535374149093988505
0.555375381976655591
0.582237207251986799
0.619319231740178222
0.573974138269382705
0.535177670754176993
0.505908512862495163
0.476639198875734693
0.457529605938554962
0.442135204351018385
0.416081741549058359
0.410711831182739795
0.416728810400269101
0.422877796389146243
0.434695686376164903
0.458330101086260044
0.484395527458498398
0.506826729567817491
0.546704064644557897
0.576045232782322114
0.555222513549392893
0.504127935751755851
0.47801454336696636
0.431175018946032884
0.41763161411648958
0.404846048027711181
0.382378280760465761
0.375493476244261437
0.388751666399290707
0.379647968413053649
0.402362584740357687
0.416620585826694645
0.446602245966296552
0.469836080384788635
0.506040071829636728
0.545911772124832329
0.525208011389802332
0.491416048112214288
0.458077858568785301
0.423272489056795709
0.404837226450402266
0.374082052129515175
0.364440802139721298
0.36005081500343239
0.354300216095961684
0.363434122604809173
0.375304643529661697
0.403264674723107341
0.425120614514559347
0.462052715899107569
0.497463926377595123
0.525765434027741785
0.535041690589021068
0.493412813248932991
0.452784584643004084
0.429986051068514452
0.406604499399621011
0.382699911016233962
0.37045612196394001
0.347760470765151153
0.351751082795180414
0.357423075241527943
0.376378557103880462
0.395720424234826063
0.432005074963778102
0.455162762285826361
0.492346433701813857
0.541717277289460619
0.549723551147049183
0.510118231161912128
0.482134721589622617
0.441315704981189105
0.427933432964145821
0.395699624687867457
0.385424240233121995
0.373622443529417647
0.371104266496946944
0.38661482632320987
0.390584325463013915
0.413987834361850882
0.437255627313952788
0.469166219544944862
0.510687593802293005
0.543767301909988565
0.573142534265476455
0.535161496437770778
0.504442143233588935
0.480207008934328439
0.456365970684648736
0.440224498784612173
0.42115834067015212
0.414260109991333558
0.413983143896362815
0.41282255957274
0.440065254247258619
0.460608848644853797
0.478817829704592135
0.507376961501411206
0.536116601265651638
0.575804449090915882
0.618452055684270086
0.586323911506137163
0.547057568103364478
0.518533653030756048
0.508281395759662025
0.487191394167763692
0.468209951643720201
0.47502165036941485
0.470735895211944144
0.471597803358808076
0.490738204317910209
0.496962750282367138
0.523565372238519733
0.552145706683686788
0.576414758521518023
0.615982134572209516
0.663564624434755834
0.636188406812512097
0.607209537509474595
0.578162147473085919
0.565201888879140246
0.547826635711258114
0.537588411421714207
0.536801741348607364
0.532257197128636617
0.538949895949302094
0.548829500548904559
0.569571719964345302
0.58336476511834956
0.610700996402296914
0.63416499601539289
0.667212867385195252
0.651762861386465442
0.624668319079483503
0.596526761766789426
0.572645455152046567
0.547958635670137917
0.530746170628338287
0.5263415797522768
0.515835066065972847
0.504781732783502135
0.521926697092364722
0.532955090153484745
0.554266943317842986
0.571768971234810186
0.594671540972111723
0.614280650469864353
0.652779268399404922
0.597612611731285215
0.552413715680777795
0.53670682097741429
0.509653244936701499
0.485074203093707634
0.46516156872524933
0.449165924500308344
0.452068629681301459
0.458256507336330776
0.455224674652896233
0.482326542937895786
0.479570987303912732
0.511447659456965242
0.535754920495236542
0.562411789258658645
0.602247182806724624
0.563333159227040414
0.528909737846620098
0.494440482006090309
0.452934693557420331
0.432109402202319748
0.413097633515138063
0.394114726436043006
0.399085880508259161
0.396264969100788456
0.401897109401130881
0.418968662415284521
0.426044662975024857
0.461150006515184008
0.495641901836412546
0.523043553612000944
0.562835894364979827
0.536142231571941741
0.491739055848491091
0.462705619160357129
0.425873425344924283
0.397834391577544633
0.368655757752196445
0.36553078042719489
0.346356298618210046
0.358276598148239367
0.366286796204782772
0.37198284133984294
0.397458128912749731
0.429259636740187966
0.462310359303179375
0.493758613801371926
0.536763130772381247
0.518030395223066598
0.483317412880930442
0.434418531006808828
0.40195055839856908
0.376326583636825807
0.346480662876764212
0.343513266909433013
0.329234321405938613
0.324645831873467905
0.328492915499520921
0.361013801151910674
0.382888797534530867
0.40925766823133275
0.433676591462131056
0.476972713021311279
0.511019458486006051
0.515207824422285299
0.475157928017649167
0.436469007081027538
0.408507870410287854
0.375437606586044581
0.349942271763482915
0.3368723367336518
0.321787727167657356
0.334440448572686677
0.33732561813623968
0.354431464726129408
0.375188297046249619
0.403485878680551524
0.446630387848849841
0.474198970345530046
0.516815051747724796
0.532674519169598071
0.49726060125864735
0.458857047383013361
0.430545361380080538
0.390167460425200896
0.374040584412352717
0.350607989899851147
0.354016515903366302
0.357660448245895601
0.357784904114939017
0.377235832062499166
0.399356627447905954
0.421944268087844188
0.446171748463335627
0.495437385774028183
0.534149910557537466
0.564220305223134155
0.528112313530213817
0.494692862377184017
0.46072125361601407
0.432664516948413513
0.40540567794873178
0.405910075557136762
0.3868529093168529
0.395238052596882217
0.391060622584724626
0.42105698028637828
0.432542160533618603
0.46229105876127774
0.485410883770006296
0.519174840233094681
0.561813860673573529
0.592854616125816469
0.570297321637809107
0.536060153496945579
0.50555442901873282
0.488851363738238898
0.464392830932280565
0.452679413269839626
0.439942470013332698
0.451818824230862004
0.467053593109927501
0.471250187957427069
0.485667483885943996
0.506045132601496417
0.53643149520226785
0.567995590528189931
0.602816335638755918
0.651359724179434219
0.621232955309952262
0.589981046434758238
0.566661263257515313
0.544957842213106614
0.526900650608806975
0.52157320817024555
0.518815717921441655
0.517933283076470907
0.516421020822833476
0.533714062321453464
0.549962438923311647
0.569822865277778923
0.591255708452580464
0.624316966387833072
0.654939607754873698
0.632622034586943327
0.605287471158534207
0.582379565166171509
0.56672863208354074
0.530798009577224672
0.515400749248045353
0.503403549519939486
0.50342398362574925
0.508532759718278604
0.509974994985027408
0.520920215648191798
0.530241082849929768
0.556311132541304376
0.58080754749649377
0.612507224423915031
0.64107008222488282
0.589782178931766099
0.551658708670810127
0.518478570758497681
0.491933503757940982
0.468387887577096318
0.442587950193821522
0.436343297713482903
0.437187160683550291
0.442037147713579603
0.44088837599107078
0.445563471281468004
0.468519437412301343
0.496686902653204643
0.515309873401319951
0.551764204123690982
0.589348390632205565
0.546870111008546211
0.516813806334110115
0.482125688975881206
0.443350495523152754
0.415764000167443637
0.398083080477510287
0.38112403670127637
0.371408163493264831
0.364749361460794119
0.379892747791364283
0.397264656252656778
0.417834026565148731
0.437024792855916444
0.478610311931203458
0.513555043974490921
0.538804486771485625
0.511236263316648842
0.473505437516107852
0.431511915662712742
0.414622124830881789
0.366998326188697266
0.356323154790689101
0.327445101878354239
0.330921985148511455
0.331504394053540763
0.341687445780942123
0.355460785253335576
0.377256829148902351
0.405967320601145432
0.448899858930535023
0.4756324173439887
0.521788803142088309
0.505021999777267472
0.469359202349115545
0.414843185105283507
0.384621816981838949
0.356682761095884648
0.332595978605710108
0.321159906540632811
0.316902694967057974
0.30847631480958726
0.317125883255720664
0.32543966375585659
0.36137974061858974
0.392387911189602645
0.429384448685605769
0.465621924364496398
0.500442703665206934
0.504543178976486262
0.461043467485834302
0.424237411179502255
0.38602287899355775
0.363137534045103405
0.330901337492428838
0.311862726364851517
0.309299850728776748
0.305614681508806052
0.310802335892439441
0.34120107733007532
0.358522990130308472
0.383959871638821393
0.422181995072324512
0.460191931688715139
0.501082046926925706
0.524799800914305115
0.478558232926264093
0.444694593885368972
0.408825310866038016
0.386362645036353536
0.361239231450845355
0.329553561351010493
0.32811345243366774
0.332919494151197037
0.332716803691098406
0.362745025975991842
0.378686577684058612
0.400683201948801693
0.432292498090691257
0.474342439316644937
0.513706832927244506
0.544476007004639939
0.50523513201770387
0.48409681934697496
0.445355805581746533
0.408037864913537385
0.394609874911104053
0.379638135822370104
0.378393942301858577
0.365441194956887871
0.38327501097495803
0.406071724123750533
0.413550274123742456
0.434884595102010219
0.477598043864797206
0.506405080595584756
0.53700120308007937
0.581430433326297402
0.558448564627841315
0.519238153278028913
0.491740937839972247
0.468571298221627519
0.455725462400852765
0.431263036483014117
0.42896725101558153
0.437005714608110829
0.441623544448102034
0.445893366300999239
0.473522183994332602
0.492690625797735926
0.524892698108351263
0.55875425539322221
0.588823793464236855
0.643312647379912117
0.615445857389002926
0.576927599834140326
0.549338190189009423
0.533890966120193378
0.515148979228514103
0.499728927937908241
0.504998385481218004
0.502778060011247252
0.503063068715496109
0.517772937816160517
0.529530328455398491
0.550458776584273113
0.580985464976962573
0.608637290341883852
0.641824171580351543
0.627680559106302161
0.595121689724907865
0.562459395116348126
0.540046681483136726
0.517876181697012217
0.509295000257863895
0.489704430972362381
0.490250935955937051
0.486521821423466339
0.49226220456245029
0.498125013533010419
0.520454020594717348
0.535088166315900393
0.561170580571670463
0.594948864865288751
0.623560247369241649
0.571175234774453866
0.54013871647142675
0.509489960829559774
0.483450373623709795
0.460928129379237495
0.434226443237728577
0.417718509272661576
0.416494623839252287
0.415006720244281591
0.430749915675249451
0.438012511200375099
0.461694444839442553
0.481162756893973476
0.509104466597381955
0.545351633799307622
0.580673087099893404
0.534643650529308956
0.493957123324293867
0.464039758849564166
0.427969382038236146
0.398580991286873909
0.372180994377663943
0.362198603495117621
0.342766505032570556
0.35726981237509986
0.36195364271020547
0.374673117027810421
0.403785783309578983
0.422102663745999807
0.460807584929886438
0.48830578283967474
0.539009666917248498
0.500569967451467424
0.459502063789900606
0.419516961507012121
0.387509962020950838
0.355211819618527713
0.32792915862909755
0.313190177586888552
0.304250022788265684
0.313494541068294996
0.310918849614476467
0.337877335966744075
0.356105088203732767
0.386814142166214514
0.419688107899834406
0.466736465492781472
0.511054147901906952
0.496251865504116707
0.444620422634998014
0.399438736632651892
0.37137558620764366
0.340987583551478735
0.312489837061228959
0.29741466339340844
0.283068459422554097
0.275804188640083381
0.284366968233496331
0.308644069086375428
0.338819328699183797
0.364600664790407314
0.404263203337974164
0.448490566525378886
0.479104210017056165
0.488116794703335466
0.441148437771716806
0.406176712706870668
0.372620398219362381
0.329786106500697507
0.305638945947947716
0.290461233217627179
0.280309365184272852
0.275286305339302151
0.292887170870215097
0.311749232660594178
0.33580632821090256
0.363516375239626099
0.406904499724692892
0.445404323849597661
0.479587303278774912
0.501164755049123722
0.45908610920005688
0.419730889729668377
0.386244398056107052
0.361607388466183954
0.332376485289253842
0.317329887059544791
0.300972740073421896
0.306940891165951246
0.311479457524632686
0.327192826689400307
0.35706608673888901
0.388561273513870764
0.427611997059990645
0.467477737465437748
0.497503427687063182
0.533968296525402786
0.496597199007887624
0.457729639220657902
0.434193442096829862
0.397573606032967652
0.377926538811257706
0.357431452616211343
0.363971033841164304
0.354680395871193599
0.364554655893799262
0.375198934898904213
0.403720780868172757
0.426681215992093577
0.459014066863480175
0.497874569460768468
0.541425133225842181
0.569229739168985116
0.535834822428458035
0.501655793349090939
0.482164057705741056
0.457517790023768745
0.441270205444759867
0.429044498042192801
0.412180964171283526
0.406381537138812809
0.430391334132280701
0.434748656219906326
0.450603441421473794
0.478572730038504757
0.507593541304413254
0.548747935068838899
0.574054739931924574
0.624464921899270942
0.603873825955376642
0.568101179784316956
0.541249989588605485
0.522062888239981038
0.507636980238332702
0.502123559390331153
0.475419087811405794
0.476860871716435097
0.478944028292919044