# vtk DataFile Version 2.0
UG Cylinder: radial divisions 30   levels 30   noise yes
ASCII

DATASET UNSTRUCTURED_GRID
POINTS 900 float
4.83748 -0.0262049 0.200289
4.76097 0.958653 -0.227654
4.41239 1.98441 -0.0878622
3.88827 2.84432 0.0495664
3.28533 3.63497 0.134667
2.41401 4.1502 0.0843111
1.47278 4.5825 -0.221694
0.536911 4.75519 0.235464
-0.48041 4.79753 0.0499123
-1.53194 4.59697 0.0255443
-2.38236 4.17734 -0.057059
-3.26432 3.62675 0.124624
-3.88326 2.8254 -0.0922397
-4.44416 1.98392 0.200036
-4.72812 1.0189 0.00986773
-4.86027 0.00744821 -0.0120245
-4.7321 -1.01858 -0.180862
-4.44865 -1.96661 -0.226881
-3.87058 -2.80983 -0.0663991
-3.23202 -3.60798 0.217187
-2.45054 -4.23121 -0.132011
-1.44849 -4.5501 -0.229211
-0.469716 -4.78674 -0.238335
0.529518 -4.76478 0.0912618
1.51995 -4.58688 0.114971
2.42576 -4.18207 -0.0946548
3.27283 -3.59077 -0.136565
3.88864 -2.81285 0.0818087
4.37593 -1.94488 0.132419
4.7654 -1.00426 -0.14922
4.79916 0.0478537 0.788037
4.71502 1.03392 0.998523
4.38722 2.0117 0.85673
3.87603 2.85611 0.999407
3.25117 3.59317 0.760659
2.40416 4.166 0.757938
1.54065 4.57045 1.10552
0.49405 4.81205 1.19273
-0.472622 4.85626 0.995919
-1.48439 4.63532 1.00396
-2.36567 4.17703 1.23841
-3.20393 3.54506 1.07082
-3.872 2.85691 0.871698
-4.42152 2.0135 0.863167
-4.77018 0.964158 0.890503
-4.79886 0.00549948 1.01031
-4.70701 -0.983032 0.827477
-4.4401 -1.91652 0.887192
-3.86836 -2.89195 1.15511
-3.25164 -3.6097 0.880122
-2.44834 -4.14975 0.879967
-1.49643 -4.61409 0.910787
-0.490611 -4.7807 0.769429
0.483288 -4.77338 1.19244
1.47509 -4.6024 0.755536
2.36675 -4.18807 1.03995
3.2061 -3.6401 1.17673
3.86595 -2.8319 0.845006
4.42039 -1.97302 0.935185
4.68087 -0.97101 1.01889
4.81605 -0.0236747 2.01836
4.7188 0.983394 1.86762
4.41314 1.93242 1.87288
3.89693 2.80428 2.00699
3.27275 3.56535 1.79528
2.37393 4.23168 2.00322
1.52687 4.63336 1.75288
0.531862 4.82691 2.11313
-0.540933 4.76685 1.83373
-1.51281 4.60372 2.07235
-2.3663 4.21568 1.98472
-3.21545 3.61361 1.88145
-3.87911 2.80087 2.17455
-4.40697 1.96049 1.91326
-4.73301 0.952691 2.0266
-4.78923 -0.0507453 2.13192
-4.69753 -0.95898 1.76603
-4.38326 -1.94698 1.9305
-3.92433 -2.8157 1.77615
-3.21974 -3.60495 1.92505
-2.3966 -4.17502 1.99264
-1.51185 -4.6248 1.86884
-0.49626 -4.76746 1.86268
0.490185 -4.78201 1.82158
1.53636 -4.56508 1.78575
2.40227 -4.14509 2.20032
3.18267 -3.62804 2.02357
3.8652 -2.85567 2.13558
4.44408 -2.01524 2.18917
4.69008 -1.01772 1.83863
4.79506 0.0504726 2.89899
4.72579 1.01286 2.95936
4.40709 2.00359 2.94491
3.91095 2.79821 2.7922
3.23402 3.55289 2.95014
2.46256 4.17543 2.75815
1.47059 4.63364 3.00946
0.489314 4.83005 3.12539
-0.514243 4.84887 3.20531
-1.54069 4.60056 2.76459
-2.44917 4.23075 3.04542
-3.23447 3.56179 2.90396
-3.8626 2.80177 3.19132
-4.38753 1.99165 2.93222
-4.77137 1.02274 3.17794
-4.81993 -0.00601822 2.86782
-4.69171 -1.05138 2.98305
-4.4021 -1.95328 2.85256
-3.95992 -2.82458 2.78231
-3.28269 -3.61488 2.76045
-2.39327 -4.13842 2.93638
-1.45294 -4.59913 2.78445
-0.542397 -4.75738 2.83238
0.494265 -4.7796 3.18506
1.44312 -4.628 2.98729
2.45399 -4.1563 2.85172
3.18796 -3.61005 2.99683
3.92325 -2.85072 3.08187
4.39489 -1.98668 3.14658
4.72335 -0.969394 2.81664
4.84726 -0.0466666 4.00915
4.7726 1.04575 3.98657
4.432 1.97491 3.98279
3.93985 2.83229 4.24287
3.25653 3.63161 3.9498
2.44437 4.16962 3.83896
1.49015 4.59077 3.8191
0.514664 4.77367 3.8997
-0.496297 4.83861 3.98799
-1.448 4.61242 4.24026
-2.4327 4.22425 3.91951
-3.23173 3.60565 4.08889
-3.86926 2.81546 3.9113
-4.39302 1.98321 4.08431
-4.73889 1.02465 4.06955
-4.81911 -0.0214025 4.06769
-4.77051 -1.04007 4.18184
-4.36527 -1.92207 3.80876
-3.91661 -2.79165 3.87089
-3.28365 -3.6257 4.10516
-2.37479 -4.15127 3.85707
-1.45858 -4.54598 4.17684
-0.537805 -4.80262 3.84303
0.483006 -4.82541 4.11134
1.5442 -4.59083 3.99457
2.40397 -4.1992 3.82738
3.22878 -3.54598 4.12053
3.94472 -2.86011 3.97456
4.37132 -1.96423 4.16622
4.7523 -1.05416 4.0413
4.8317 -0.0348582 4.83601
4.77952 0.958213 5.19736
4.3671 2.00126 5.1652
3.92009 2.84915 5.00783
3.19785 3.59782 5.1096
2.40653 4.13599 4.9364
1.53355 4.6392 4.92809
0.49921 4.8152 5.22599
-0.476414 4.84602 5.21742
-1.53845 4.56682 4.88882
-2.40666 4.1384 5.07303
-3.1821 3.62161 5.20955
-3.86451 2.80367 4.76807
-4.36401 1.98263 4.97605
-4.72025 1.03693 4.78899
-4.81508 0.0219162 4.94068
-4.68585 -0.993092 4.97818
-4.38325 -1.97197 5.01272
-3.90395 -2.82789 4.79304
-3.28516 -3.61529 5.12479
-2.43226 -4.20921 5.04874
-1.46502 -4.55473 4.91107
-0.519186 -4.80237 5.20146
0.454111 -4.76905 4.97175
1.49463 -4.62191 5.2136
2.37062 -4.14379 4.81351
3.23368 -3.56709 4.86501
3.87463 -2.85524 4.97464
4.41615 -1.96263 4.76239
4.73901 -0.966546 4.81103
4.81058 0.00580192 5.98046
4.70633 1.0184 5.88393
4.41811 1.96843 5.85217
3.94444 2.88979 6.24588
3.23787 3.62916 5.77387
2.40399 4.19561 6.21176
1.5336 4.58622 6.07668
0.536329 4.79706 6.00094
-0.503571 4.75738 6.22163
-1.44155 4.56802 6.22712
-2.42011 4.20592 5.78866
-3.21034 3.55348 6.09656
-3.90125 2.88961 6.03136
-4.45078 2.00075 5.87019
-4.76234 1.00483 5.79022
-4.79209 -0.0301668 5.8834
-4.72817 -0.993661 5.89692
-4.41535 -1.93397 6.07255
-3.94773 -2.87336 6.05713
-3.23277 -3.6207 5.88311
-2.45415 -4.19354 6.00219
-1.48343 -4.60882 5.89483
-0.542102 -4.85656 6.22557
0.549137 -4.77675 5.97088
1.47946 -4.57342 5.81284
2.4014 -4.14121 6.10566
3.23183 -3.63953 6.0925
3.88841 -2.88011 6.1581
4.44769 -1.91906 6.22887
4.7043 -1.02762 6.02164
4.79737 0.0490608 6.80289
4.69579 1.00366 6.84852
4.44696 1.96022 7.09517
3.90548 2.84158 7.20255
3.21927 3.61871 6.77591
2.42974 4.19763 6.94869
1.48026 4.64741 6.98149
0.479475 4.7922 7.06554
-0.512009 4.77546 7.05704
-1.49843 4.61099 6.78823
-2.39674 4.18835 6.95266
-3.19248 3.61508 6.91341
-3.96024 2.88125 6.84081
-4.43384 1.96197 7.08607
-4.67871 0.996754 7.08841
-4.80242 0.00980424 6.80536
-4.7108 -0.980175 7.04735
-4.36538 -1.98127 6.90707
-3.93718 -2.80257 7.1699
-3.19924 -3.61178 7.0701
-2.45628 -4.1597 6.83216
-1.4969 -4.56607 7.12454
-0.495839 -4.80117 6.79452
0.51265 -4.79248 7.03461
1.46018 -4.56438 6.77948
2.37706 -4.13673 7.10746
3.2529 -3.58724 7.08669
3.87019 -2.81925 6.82498
4.43311 -2.00132 7.16133
4.67805 -0.988801 6.91808
4.86776 -0.0491609 7.94246
4.69524 0.982542 7.77303
4.45329 1.93936 7.91373
3.94474 2.88497 8.05243
3.24974 3.56877 8.2376
2.45489 4.18424 7.81566
1.4474 4.63627 7.88386
0.488659 4.76076 8.21146
-0.518179 4.83563 8.18135
-1.48501 4.64527 8.10727
-2.45098 4.19848 8.1731
-3.21737 3.61759 8.11757
-3.85991 2.82708 7.85157
-4.45234 1.95514 7.83411
-4.68108 1.02028 8.14583
-4.80266 -0.0330715 7.8147
-4.7422 -0.973484 8.17517
-4.3986 -2.00706 8.14875
-3.86904 -2.86075 7.98819
-3.27288 -3.61843 8.12098
-2.42999 -4.23485 8.04638
-1.54404 -4.61386 7.85975
-0.542156 -4.83832 7.79812
0.555309 -4.85202 8.06274
1.4653 -4.62066 7.91089
2.46647 -4.1783 8.16385
3.18552 -3.63222 8.02386
3.89418 -2.89012 8.16407
4.46663 -1.9779 7.79769
4.77639 -1.0247 8.09391
4.85931 -0.0103939 8.96521
4.68036 0.962517 8.81744
4.39684 1.94882 9.19284
3.93203 2.8889 9.04542
3.25875 3.5951 8.8246
2.41051 4.19077 9.12014
1.53339 4.592 9.11599
0.504078 4.79819 9.20772
-0.509731 4.85545 8.8772
-1.54293 4.60872 9.24615
-2.37804 4.22438 8.7562
-3.25291 3.63273 8.95484
-3.90532 2.89238 8.89268
-4.41162 1.94608 9.18278
-4.73469 0.95456 8.82877
-4.88234 0.0107519 8.88703
-4.71079 -0.989632 9.0302
-4.42245 -1.97362 9.00989
-3.90527 -2.83509 9.13805
-3.23538 -3.64262 9.17196
-2.4529 -4.19305 9.07383
-1.46107 -4.61613 8.93349
-0.459409 -4.80387 8.93727
0.546083 -4.77907 8.92659
1.5421 -4.57341 9.23072
2.45363 -4.19946 8.81505
3.20124 -3.57684 9.00933
3.92017 -2.83269 8.94424
4.42465 -1.965 9.17072
4.73794 -0.980956 9.10756
4.8471 0.0380264 10.1999
4.76983 1.00579 10.0909
4.44944 1.99726 9.80504
3.94845 2.79479 10.0253
3.24723 3.5502 10.0953
2.37261 4.14291 9.92765
1.45924 4.60377 10.2343
0.501803 4.82229 10.1278
-0.523437 4.78945 9.88545
-1.46835 4.60389 10.2213
-2.39827 4.18607 10.2139
-3.26338 3.62105 10.1945
-3.952 2.79154 10.0962
-4.44095 1.97457 10.1604
-4.69765 1.05626 9.99729
-4.80066 -0.0317058 10.0391
-4.67671 -1.05059 10.0407
-4.40578 -1.95224 10.1284
-3.94198 -2.83253 10.0065
-3.28185 -3.56346 9.96888
-2.38166 -4.15792 10.1616
-1.44648 -4.58294 9.90524
-0.481268 -4.84553 9.91242
0.521151 -4.81034 10.2116
1.47495 -4.57408 10.1264
2.43494 -4.14476 10.1638
3.2415 -3.62875 9.97676
3.92416 -2.83533 9.81331
4.45576 -1.97039 9.97686
4.70304 -1.0366 10.138
4.80019 -0.0308799 11.2413
4.68911 1.02144 11.0867
4.42286 1.95883 10.9961
3.92714 2.82547 11.0194
3.21853 3.58192 11.0459
2.4042 4.19459 10.9487
1.49595 4.60205 10.879
0.476824 4.84935 10.9493
-0.5083 4.83726 11.1066
-1.48666 4.59214 10.8194
-2.4264 4.22119 10.9206
-3.23477 3.58211 10.7514
-3.95289 2.80294 10.7944
-4.42679 1.95835 11.2378
-4.7078 0.983623 11.1422
-4.80416 -0.0172822 11.1607
-4.73458 -1.01151 10.8726
-4.37754 -1.91407 10.9203
-3.87145 -2.87751 11.2001
-3.25248 -3.55083 10.7724
-2.4508 -4.18382 11.1961
-1.49313 -4.57898 11.0323
-0.525676 -4.83934 11.154
0.511509 -4.83638 11.0413
1.52963 -4.56426 11.1537
2.43244 -4.14804 10.9225
3.27667 -3.59096 10.8529
3.90548 -2.86982 11.0991
4.38425 -1.97075 10.973
4.7425 -1.0438 11.188
4.81574 -0.0515345 12.1418
4.72549 1.00266 12.1375
4.40693 1.96048 12.174
3.92867 2.82189 12.1953
3.1896 3.54391 11.9263
2.37214 4.21686 11.9833
1.44933 4.60342 12.0914
0.53099 4.79884 12.0744
-0.479059 4.78343 11.9098
-1.47501 4.57199 11.9075
-2.36926 4.20417 12.1011
-3.21339 3.59389 11.7888
-3.90603 2.84013 12.1446
-4.42403 1.94332 12.1912
-4.75658 0.987621 11.7512
-4.78403 0.0242653 11.9429
-4.71699 -0.973204 12.2045
-4.39581 -2.01621 12.073
-3.93637 -2.8236 11.8712
-3.23451 -3.57854 12.1359
-2.42357 -4.15937 11.8801
-1.48466 -4.55787 12.1295
-0.494223 -4.80438 11.7925
0.483843 -4.81011 11.9816
1.48906 -4.61551 11.8458
2.46512 -4.13849 11.8722
3.26826 -3.56461 11.8934
3.91131 -2.81677 12.0435
4.37188 -1.99786 11.8244
4.75511 -0.961057 12.2477
4.88509 0.0487912 13.2433
[...]
POINT_DATA 900
SCALARS scalars double
LOOKUP_TABLE default
0.00306095
0.065328
0.137454
0.194279
0.26525
0.333175
0.407971
0.470415
0.530891
0.608146
0.668034
0.737268
0.802172
0.862429
0.93483
0.992027
0.932947
0.866544
0.790547
0.738545
0.663736
0.602678
0.529039
0.462343
0.396727
0.334687
0.260826
0.200609
0.139109
0.0697574
0.0450976
0.0168638
0.0977335
0.153077
0.224373
0.293961
0.36379
0.424166
0.497507
0.557089
0.620798
0.694879
0.762687
0.823435
0.890946
0.957404
0.977767
0.912519
0.845421
0.774594
0.710267
0.638529
0.575078
0.513971
0.451376
0.37932
0.309437
0.241722
0.173281
0.107078
0.0876848
0.0170348
0.0538366
0.117991
0.178344
0.251763
0.327229
0.384581
0.448267
0.526094
0.57298
0.644701
0.711643
0.77755
0.853277
0.915539
0.980658
0.95465
0.888308
0.808949
0.753834
0.683583
0.620926
0.559451
0.482357
0.411202
0.354652
0.292234
0.218083
0.159695
0.123674
0.0614842
0.00486519
0.0812497
0.147513
0.210057
0.274891
0.336387
0.406023
0.476139
0.548682
0.61396
0.674391
0.733251
0.813425
0.876158
0.944805
0.993914
0.923307
0.858834
0.789786
0.726316
0.658183
0.593509
0.527521
0.46631
0.390574
0.33437
0.258865
0.186085
0.164667
0.105605
0.0330042
0.028828
0.105983
0.161069
0.237127
0.298059
0.362376
0.436948
0.510754
0.568633
0.635034
0.702764
0.76174
0.822738
0.906144
0.955704
0.968271
0.895226
0.837227
0.768955
0.697202
0.63462
0.56847
0.499372
0.430055
0.369107
0.309728
0.233475
0.221015
0.137874
0.0801886
0.0154529
0.0566052
0.130776
0.188038
0.251825
0.322679
0.391999
0.455799
0.518447
0.596423
0.662066
0.712324
0.792505
0.860025
0.918162
0.994801
0.952853
0.874007
0.802476
0.747084
0.680013
0.605556
0.553863
0.464695
0.411173
0.348525
0.282842
0.24682
0.170518
0.127103
0.048601
0.0159809
0.0839048
0.145477
0.218661
0.271031
0.343519
0.414167
0.481877
0.540159
0.615883
0.683029
0.741435
0.810551
0.883183
0.954249
0.985191
0.916729
0.846607
0.780681
0.715664
0.642879
0.59201
0.514847
0.459042
0.391857
0.313911
0.289934
0.229514
0.16285
0.0914989
0.0241286
0.0389318
0.106044
0.158294
0.230286
0.302484
0.374962
0.441151
0.511594
0.567692
0.640456
0.704257
0.775573
0.841743
0.909716
0.969799
0.955743
0.889824
0.834594
0.756299
0.703292
0.629789
0.559612
0.499943
0.430075
0.36016
0.331957
0.269587
0.200279
0.140123
0.0698164
-0.00158311
0.0700915
0.1292
0.202045
0.268621
0.326033
0.387245
0.46983
0.53472
0.589958
0.664445
0.731691
0.793568
0.859054
0.937988
0.999818
0.934352
0.864175
0.800394
0.738397
0.671928
0.596841
0.539852
0.467282
0.403814
0.383241
0.309214
0.240994
0.1792
0.116563
0.04167
0.0217207
0.0836057
0.156659
0.220406
0.293983
0.349885
0.412717
0.492943
0.550635
0.624227
0.694259
0.752135
0.818864
0.888817
0.948472
0.97617
0.913524
0.840177
0.778544
0.706902
0.653137
0.568494
0.511328
0.450852
0.417889
0.355623
0.290345
0.212207
0.155969
0.0847509
0.0237833
0.0374877
0.113229
0.180065
0.244163
0.312549
0.381859
0.442087
0.515339
0.584578
0.657378
0.714671
0.779498
0.850763
0.916974
0.980003
0.955495
0.881623
0.817835
0.751938
0.68885
0.609347
0.553815
0.485998
0.463752
0.389789
0.332434
0.256369
0.193386
0.126136
0.0618807
0.0055726
0.0646082
0.133576
0.205675
0.272463
0.337605
0.40563
0.475672
0.530227
0.603898
0.662151
0.740058
0.806052
0.865675
0.930328
0.996688
0.91446
0.864122
0.793014
0.723083
0.674638
0.595095
0.53273
0.50743
0.441439
0.370113
0.302664
0.237917
0.168053
0.0923646
0.0410036
0.027397
0.0856651
0.166371
0.230602
0.299059
0.370797
0.436985
0.489648
0.565423
0.624303
0.708395
0.765662
0.833676
0.888371
0.952789
0.977164
0.904007
0.839855
0.768687
0.700342
0.639269
0.568274
0.539276
0.47905
0.409983
0.345818
0.277412
0.216477
0.139337
0.0806739
0.0122807
0.0548083
0.127851
0.181695
0.25407
0.318566
0.39338
0.450069
0.522302
0.589604
0.661111
0.724318
0.788829
0.85511
0.923231
0.986628
0.94784
0.870937
0.807263
0.746187
0.684189
0.608608
0.583392
0.519849
0.452395
0.384308
0.328473
0.256135
0.185648
0.116227
0.0616941
0.0132326
0.0804676
0.144217
0.214242
0.273663
0.337708
0.412467
0.483638
0.545279
0.613557
0.680497
0.752736
0.80027
0.885201
0.945495
0.984724
0.908488
0.864163
0.785648
0.726456
0.643456
0.637628
0.564811
0.496452
0.425361
0.356452
0.295504
0.232901
0.167389
0.089822
0.0319144
0.0383224
0.110395
0.169925
0.239564
0.301571
0.376568
0.437283
0.507306
0.574834
0.636426
0.710749
0.767328
0.8403
0.902159
0.962511
0.968485
0.883488
0.825953
0.766422
0.696297
0.668587
0.613663
0.535005
0.474951
0.40545
0.34681
0.271446
0.197637
0.138266
0.0795803
0.0049334
0.0662061
0.130221
0.198496
0.260321
0.320848
0.404837
0.47041
0.522795
0.593082
0.656968
0.723511
0.793878
0.855096
0.9338
0.994986
0.938091
0.868078
0.808189
0.734356
0.71662
0.644883
0.579655
0.512808
0.44832
0.37603
0.310386
0.244197
0.182378
0.115707
0.0495689
0.0263759
0.0829823
0.151435
0.218058
0.277533
0.361653
0.413069
0.489041
0.55519
0.619245
0.684795
0.760039
0.821533
0.892945
0.953802
0.984572
0.91175
0.844608
0.77861
0.760828
0.685696
0.620755
0.557406
0.486661
0.42789
0.357572
0.283045
0.211259
0.157521
0.0942472
0.0247148
0.0448092
0.113109
0.182635
0.242602
0.311832
0.372509
0.438923
0.511228
0.569182
0.645908
0.711633
0.782446
0.849047
0.915493
0.98295
0.960445
0.882281
0.818785
0.804063
0.732079
0.662404
0.600973
0.535827
0.470867
0.399605
0.338909
0.272761
0.190998
0.12807
0.0667825
0.00105388
0.0719934
0.135654
0.20578
0.268226
0.329706
0.406544
0.473422
0.537131
0.605324
0.665261
0.737563
0.804957
0.866035
0.933993
1.00139
0.931559
0.858359
0.842927
0.778758
0.702456
0.639485
0.569918
0.507188
0.446837
0.375266
0.308486
0.235867
0.173888
0.104889
0.0408178
0.0203151
0.0974647
0.165543
0.237436
0.294388
0.349754
0.432748
0.492193
0.560272
0.631276
0.695358
0.762278
0.835155
0.88922
0.955561
0.966543
0.914558
0.882772
0.819211
0.747511
0.682668
0.606786
0.542829
0.488369
0.42934
0.338784
0.280602
0.218304
0.153761
0.0859526
0.0197173
0.0471701
0.114119
0.184813
0.24003
0.320155
0.388933
0.457219
0.506727
0.58378
0.65806
0.716359
0.786329
0.860231
0.913685
0.99442
0.953358
0.917698
0.855664
0.797922
0.719
0.663033
0.587516
0.527054
0.45711
0.397758
0.32243
0.251669
0.186875
0.12906
0.0575932
0.0076213
0.072483
0.13946
0.198859
0.288099
0.335455
0.413812
0.474416
0.545622
0.611644
0.676304
0.746785
0.807379
0.878238
0.939123
0.994486
0.970557
0.899092
0.83279
0.770707
0.69901
0.634727
0.559492
0.498301
0.443259
0.367329
0.303084
0.231458
0.165491
0.104086
0.0307533
0.0303628
0.104227
0.166853
0.237687
0.299538
0.367322
0.431817
0.503406
0.570837
0.634963
0.702498
0.769765
0.846448
0.899337
0.971085
1.00195
0.944224
0.874965
0.813764
0.733819
0.666687
0.606036
0.546391
0.471889
0.405024
0.345401
0.273485
0.199348
0.136422
0.0752509
0.00223453
0.0607175
0.123737
0.191771
0.25716
0.331852
0.391154
0.462483
0.519116
0.588938
0.663195
0.720241
0.79929
0.864165
0.932048
0.945232
0.979535
0.911051
0.8579
0.775311
0.719374
0.640786
0.583605
0.508998
0.453992
0.385223
0.317684
0.253482
0.185579
0.116549
0.0523248
0.0192815
0.0829872
0.146953
0.213048
0.280252
0.358405
0.421954
0.483707
0.548581
0.607353
0.675408
0.751491
0.816457
0.882019
0.897501
0.976586
0.966398
0.89159
0.820088
0.757513
0.691594
0.625921
0.56869
0.486461
0.427899
0.362531
0.289494
0.226282
0.157499
0.0886101
0.0296877
0.0318313
0.103583
0.180677
0.249125
0.303296
0.379671
0.445587
0.502994
0.577198
0.645617
0.701528
0.782815
0.845724
0.86661
0.933686
1.00878
0.932061
0.873502
0.784582
0.725063
0.663064
0.603815
0.528405
0.472532
0.395254
0.327737
0.267008
0.204703
0.130817
0.0724543
-0.00742112
0.0707639
0.142275
0.198822
0.269305
0.337235
0.404483
0.475027
0.538707
0.604971
0.661627
0.733591
0.79164
0.834159
0.893895
0.9597
0.97029
0.909654
0.847807
0.771543
0.713512
0.635975
0.569552
0.521973
0.441827
0.382311
0.309984
0.243512
0.172422
0.11085
0.0462897
0.016347
0.0988185
0.163444
0.228657
0.289998
0.35887
0.421283
0.481606
0.556321
0.622764
0.687886
0.756993
0.775502
0.850689
0.918441
0.970003
0.946395
0.883165
0.815136
0.744491
0.680522
0.618379
0.552825
0.486978
0.411069
0.356186
0.278028
0.225652
0.150225
0.0937738
0.0129337
0.0500333
0.110844
0.182329
0.247062
0.315976
0.382112
0.449373
0.521268
0.594668
0.653552
0.722759
