# vtk DataFile Version 3.0
vtk output
ASCII
DATASET STRUCTURED_POINTS
DIMENSIONS 2 3 4
SPACING 1 1 1
ORIGIN 0 0 0
POINT_DATA 24
SCALARS scalars float
LOOKUP_TABLE default
0 1 2 3 10 11 12 13 20 
21 22 23 100 101 102 103 110 111 
112 113 120 121 122 123 
