# vtk DataFile Version 3.0
vtk output
ASCII
DATASET STRUCTURED_POINTS
DIMENSIONS 2 3 4
SPACING 1 1 1
ORIGIN 0 0 0
POINT_DATA 24
COLOR_SCALARS scalars 1
0 0.00392157 0.00784314 
0.0117647 0.0392157 
0.0431373 0.0470588 
0.0509804 0.0784314 
0.0823529 0.0862745 
0.0901961 0.392157 
0.396078 0.4 
0.403922 0.431373 
0.435294 0.439216 
0.443137 0.470588 
0.47451 0.478431 
0.482353 
