# vtk DataFile Version 3.0
vtk output
ASCII
DATASET POLYDATA
POINTS 2640 float
0 0 0 1 0 0 2 0 0 
3 0 0 4 0 0 5 0 0 
6 0 0 7 0 0 8 0 0 
9 0 0 0 1 0 1 1 0 
2 1 0 3 1 0 4 1 0 
5 1 0 6 1 0 7 1 0 
8 1 0 9 1 0 0 2 0 
1 2 0 2 2 0 3 2 0 
4 2 0 5 2 0 6 2 0 
7 2 0 8 2 0 9 2 0 
0 3 0 1 3 0 2 3 0 
3 3 0 4 3 0 5 3 0 
6 3 0 7 3 0 8 3 0 
9 3 0 0 4 0 1 4 0 
2 4 0 3 4 0 4 4 0 
5 4 0 6 4 0 7 4 0 
8 4 0 9 4 0 0 5 0 
1 5 0 2 5 0 3 5 0 
4 5 0 5 5 0 6 5 0 
7 5 0 8 5 0 9 5 0 
0 6 0 1 6 0 2 6 0 
3 6 0 4 6 0 5 6 0 
6 6 0 7 6 0 8 6 0 
9 6 0 0 7 0 1 7 0 
2 7 0 3 7 0 4 7 0 
5 7 0 6 7 0 7 7 0 
8 7 0 9 7 0 0 8 0 
1 8 0 2 8 0 3 8 0 
4 8 0 5 8 0 6 8 0 
7 8 0 8 8 0 9 8 0 
0 9 0 1 9 0 2 9 0 
3 9 0 4 9 0 5 9 0 
6 9 0 7 9 0 8 9 0 
9 9 0 0 10 0 1 10 0 
2 10 0 3 10 0 4 10 0 
5 10 0 6 10 0 7 10 0 
8 10 0 9 10 0 0 11 0 
1 11 0 2 11 0 3 11 0 
4 11 0 5 11 0 6 11 0 
7 11 0 8 11 0 9 11 0 
0 0 1 1 0 1 2 0 1 
3 0 1 4 0 1 5 0 1 
6 0 1 7 0 1 8 0 1 
9 0 1 0 1 1 1 1 1 
2 1 1 3 1 1 4 1 1 
5 1 1 6 1 1 7 1 1 
8 1 1 9 1 1 0 2 1 
1 2 1 2 2 1 3 2 1 
4 2 1 5 2 1 6 2 1 
7 2 1 8 2 1 9 2 1 
0 3 1 1 3 1 2 3 1 
3 3 1 4 3 1 5 3 1 
6 3 1 7 3 1 8 3 1 
9 3 1 0 4 1 1 4 1 
2 4 1 3 4 1 4 4 1 
5 4 1 6 4 1 7 4 1 
8 4 1 9 4 1 0 5 1 
1 5 1 2 5 1 3 5 1 
4 5 1 5 5 1 6 5 1 
7 5 1 8 5 1 9 5 1 
0 6 1 1 6 1 2 6 1 
3 6 1 4 6 1 5 6 1 
6 6 1 7 6 1 8 6 1 
9 6 1 0 7 1 1 7 1 
2 7 1 3 7 1 4 7 1 
5 7 1 6 7 1 7 7 1 
8 7 1 9 7 1 0 8 1 
1 8 1 2 8 1 3 8 1 
4 8 1 5 8 1 6 8 1 
7 8 1 8 8 1 9 8 1 
0 9 1 1 9 1 2 9 1 
3 9 1 4 9 1 5 9 1 
6 9 1 7 9 1 8 9 1 
9 9 1 0 10 1 1 10 1 
2 10 1 3 10 1 4 10 1 
5 10 1 6 10 1 7 10 1 
8 10 1 9 10 1 0 11 1 
1 11 1 2 11 1 3 11 1 
4 11 1 5 11 1 6 11 1 
7 11 1 8 11 1 9 11 1 
0 0 2 1 0 2 2 0 2 
3 0 2 4 0 2 5 0 2 
6 0 2 7 0 2 8 0 2 
9 0 2 0 1 2 1 1 2 
2 1 2 3 1 2 4 1 2 
5 1 2 6 1 2 7 1 2 
8 1 2 9 1 2 0 2 2 
1 2 2 2 2 2 3 2 2 
4 2 2 5 2 2 6 2 2 
7 2 2 8 2 2 9 2 2 
0 3 2 1 3 2 2 3 2 
3 3 2 4 3 2 5 3 2 
6 3 2 7 3 2 8 3 2 
9 3 2 0 4 2 1 4 2 
2 4 2 3 4 2 4 4 2 
5 4 2 6 4 2 7 4 2 
8 4 2 9 4 2 0 5 2 
1 5 2 2 5 2 3 5 2 
4 5 2 5 5 2 6 5 2 
7 5 2 8 5 2 9 5 2 
0 6 2 1 6 2 2 6 2 
3 6 2 4 6 2 5 6 2 
6 6 2 7 6 2 8 6 2 
9 6 2 0 7 2 1 7 2 
2 7 2 3 7 2 4 7 2 
5 7 2 6 7 2 7 7 2 
8 7 2 9 7 2 0 8 2 
1 8 2 2 8 2 3 8 2 
4 8 2 5 8 2 6 8 2 
7 8 2 8 8 2 9 8 2 
0 9 2 1 9 2 2 9 2 
3 9 2 4 9 2 5 9 2 
6 9 2 7 9 2 8 9 2 
9 9 2 0 10 2 1 10 2 
2 10 2 3 10 2 4 10 2 
5 10 2 6 10 2 7 10 2 
8 10 2 9 10 2 0 11 2 
1 11 2 2 11 2 3 11 2 
4 11 2 5 11 2 6 11 2 
7 11 2 8 11 2 9 11 2 
0 0 3 1 0 3 2 0 3 
3 0 3 4 0 3 5 0 3 
6 0 3 7 0 3 8 0 3 
9 0 3 0 1 3 1 1 3 
2 1 3 3 1 3 4 1 3 
5 1 3 6 1 3 7 1 3 
8 1 3 9 1 3 0 2 3 
1 2 3 2 2 3 3 2 3 
4 2 3 5 2 3 6 2 3 
7 2 3 8 2 3 9 2 3 
0 3 3 1 3 3 2 3 3 
3 3 3 4 3 3 5 3 3 
6 3 3 7 3 3 8 3 3 
9 3 3 0 4 3 1 4 3 
2 4 3 3 4 3 4 4 3 
5 4 3 6 4 3 7 4 3 
8 4 3 9 4 3 0 5 3 
1 5 3 2 5 3 3 5 3 
4 5 3 5 5 3 6 5 3 
7 5 3 8 5 3 9 5 3 
0 6 3 1 6 3 2 6 3 
3 6 3 4 6 3 5 6 3 
6 6 3 7 6 3 8 6 3 
9 6 3 0 7 3 1 7 3 
2 7 3 3 7 3 4 7 3 
5 7 3 6 7 3 7 7 3 
8 7 3 9 7 3 0 8 3 
1 8 3 2 8 3 3 8 3 
4 8 3 5 8 3 6 8 3 
7 8 3 8 8 3 9 8 3 
0 9 3 1 9 3 2 9 3 
3 9 3 4 9 3 5 9 3 
6 9 3 7 9 3 8 9 3 
9 9 3 0 10 3 1 10 3 
2 10 3 3 10 3 4 10 3 
5 10 3 6 10 3 7 10 3 
8 10 3 9 10 3 0 11 3 
1 11 3 2 11 3 3 11 3 
4 11 3 5 11 3 6 11 3 
7 11 3 8 11 3 9 11 3 
0 0 4 1 0 4 2 0 4 
3 0 4 4 0 4 5 0 4 
6 0 4 7 0 4 8 0 4 
9 0 4 0 1 4 1 1 4 
2 1 4 3 1 4 4 1 4 
5 1 4 6 1 4 7 1 4 
8 1 4 9 1 4 0 2 4 
1 2 4 2 2 4 3 2 4 
4 2 4 5 2 4 6 2 4 
7 2 4 8 2 4 9 2 4 
0 3 4 1 3 4 2 3 4 
3 3 4 4 3 4 5 3 4 
6 3 4 7 3 4 8 3 4 
9 3 4 0 4 4 1 4 4 
2 4 4 3 4 4 4 4 4 
5 4 4 6 4 4 7 4 4 
8 4 4 9 4 4 0 5 4 
1 5 4 2 5 4 3 5 4 
4 5 4 5 5 4 6 5 4 
7 5 4 8 5 4 9 5 4 
0 6 4 1 6 4 2 6 4 
3 6 4 4 6 4 5 6 4 
6 6 4 7 6 4 8 6 4 
9 6 4 0 7 4 1 7 4 
2 7 4 3 7 4 4 7 4 
5 7 4 6 7 4 7 7 4 
8 7 4 9 7 4 0 8 4 
1 8 4 2 8 4 3 8 4 
4 8 4 5 8 4 6 8 4 
7 8 4 8 8 4 9 8 4 
0 9 4 1 9 4 2 9 4 
3 9 4 4 9 4 5 9 4 
6 9 4 7 9 4 8 9 4 
9 9 4 0 10 4 1 10 4 
2 10 4 3 10 4 4 10 4 
5 10 4 6 10 4 7 10 4 
8 10 4 9 10 4 0 11 4 
1 11 4 2 11 4 3 11 4 
4 11 4 5 11 4 6 11 4 
7 11 4 8 11 4 9 11 4 
0 0 5 1 0 5 2 0 5 
3 0 5 4 0 5 5 0 5 
6 0 5 7 0 5 8 0 5 
9 0 5 0 1 5 1 1 5 
2 1 5 3 1 5 4 1 5 
5 1 5 6 1 5 7 1 5 
8 1 5 9 1 5 0 2 5 
1 2 5 2 2 5 3 2 5 
4 2 5 5 2 5 6 2 5 
7 2 5 8 2 5 9 2 5 
0 3 5 1 3 5 2 3 5 
3 3 5 4 3 5 5 3 5 
6 3 5 7 3 5 8 3 5 
9 3 5 0 4 5 1 4 5 
2 4 5 3 4 5 4 4 5 
5 4 5 6 4 5 7 4 5 
8 4 5 9 4 5 0 5 5 
1 5 5 2 5 5 3 5 5 
4 5 5 5 5 5 6 5 5 
7 5 5 8 5 5 9 5 5 
0 6 5 1 6 5 2 6 5 
3 6 5 4 6 5 5 6 5 
6 6 5 7 6 5 8 6 5 
9 6 5 0 7 5 1 7 5 
2 7 5 3 7 5 4 7 5 
5 7 5 6 7 5 7 7 5 
8 7 5 9 7 5 0 8 5 
1 8 5 2 8 5 3 8 5 
4 8 5 5 8 5 6 8 5 
7 8 5 8 8 5 9 8 5 
0 9 5 1 9 5 2 9 5 
3 9 5 4 9 5 5 9 5 
6 9 5 7 9 5 8 9 5 
9 9 5 0 10 5 1 10 5 
2 10 5 3 10 5 4 10 5 
5 10 5 6 10 5 7 10 5 
8 10 5 9 10 5 0 11 5 
1 11 5 2 11 5 3 11 5 
4 11 5 5 11 5 6 11 5 
7 11 5 8 11 5 9 11 5 
0 0 6 1 0 6 2 0 6 
3 0 6 4 0 6 5 0 6 
6 0 6 7 0 6 8 0 6 
9 0 6 0 1 6 1 1 6 
2 1 6 3 1 6 4 1 6 
5 1 6 6 1 6 7 1 6 
8 1 6 9 1 6 0 2 6 
1 2 6 2 2 6 3 2 6 
4 2 6 5 2 6 6 2 6 
7 2 6 8 2 6 9 2 6 
0 3 6 1 3 6 2 3 6 
3 3 6 4 3 6 5 3 6 
6 3 6 7 3 6 8 3 6 
9 3 6 0 4 6 1 4 6 
2 4 6 3 4 6 4 4 6 
5 4 6 6 4 6 7 4 6 
8 4 6 9 4 6 0 5 6 
1 5 6 2 5 6 3 5 6 
4 5 6 5 5 6 6 5 6 
7 5 6 8 5 6 9 5 6 
0 6 6 1 6 6 2 6 6 
3 6 6 4 6 6 5 6 6 
6 6 6 7 6 6 8 6 6 
9 6 6 0 7 6 1 7 6 
2 7 6 3 7 6 4 7 6 
5 7 6 6 7 6 7 7 6 
8 7 6 9 7 6 0 8 6 
1 8 6 2 8 6 3 8 6 
4 8 6 5 8 6 6 8 6 
7 8 6 8 8 6 9 8 6 
0 9 6 1 9 6 2 9 6 
3 9 6 4 9 6 5 9 6 
6 9 6 7 9 6 8 9 6 
9 9 6 0 10 6 1 10 6 
2 10 6 3 10 6 4 10 6 
5 10 6 6 10 6 7 10 6 
8 10 6 9 10 6 0 11 6 
1 11 6 2 11 6 3 11 6 
4 11 6 5 11 6 6 11 6 
7 11 6 8 11 6 9 11 6 
0 0 7 1 0 7 2 0 7 
3 0 7 4 0 7 5 0 7 
6 0 7 7 0 7 8 0 7 
9 0 7 0 1 7 1 1 7 
2 1 7 3 1 7 4 1 7 
5 1 7 6 1 7 7 1 7 
8 1 7 9 1 7 0 2 7 
1 2 7 2 2 7 3 2 7 
4 2 7 5 2 7 6 2 7 
7 2 7 8 2 7 9 2 7 
0 3 7 1 3 7 2 3 7 
3 3 7 4 3 7 5 3 7 
6 3 7 7 3 7 8 3 7 
9 3 7 0 4 7 1 4 7 
2 4 7 3 4 7 4 4 7 
5 4 7 6 4 7 7 4 7 
8 4 7 9 4 7 0 5 7 
1 5 7 2 5 7 3 5 7 
4 5 7 5 5 7 6 5 7 
7 5 7 8 5 7 9 5 7 
0 6 7 1 6 7 2 6 7 
3 6 7 4 6 7 5 6 7 
6 6 7 7 6 7 8 6 7 
9 6 7 0 7 7 1 7 7 
2 7 7 3 7 7 4 7 7 
5 7 7 6 7 7 7 7 7 
8 7 7 9 7 7 0 8 7 
1 8 7 2 8 7 3 8 7 
4 8 7 5 8 7 6 8 7 
7 8 7 8 8 7 9 8 7 
0 9 7 1 9 7 2 9 7 
3 9 7 4 9 7 5 9 7 
6 9 7 7 9 7 8 9 7 
9 9 7 0 10 7 1 10 7 
2 10 7 3 10 7 4 10 7 
5 10 7 6 10 7 7 10 7 
8 10 7 9 10 7 0 11 7 
1 11 7 2 11 7 3 11 7 
4 11 7 5 11 7 6 11 7 
7 11 7 8 11 7 9 11 7 
0 0 8 1 0 8 2 0 8 
3 0 8 4 0 8 5 0 8 
6 0 8 7 0 8 8 0 8 
9 0 8 0 1 8 1 1 8 
2 1 8 3 1 8 4 1 8 
5 1 8 6 1 8 7 1 8 
8 1 8 9 1 8 0 2 8 
1 2 8 2 2 8 3 2 8 
4 2 8 5 2 8 6 2 8 
7 2 8 8 2 8 9 2 8 
0 3 8 1 3 8 2 3 8 
3 3 8 4 3 8 5 3 8 
6 3 8 7 3 8 8 3 8 
9 3 8 0 4 8 1 4 8 
2 4 8 3 4 8 4 4 8 
5 4 8 6 4 8 7 4 8 
8 4 8 9 4 8 0 5 8 
1 5 8 2 5 8 3 5 8 
4 5 8 5 5 8 6 5 8 
7 5 8 8 5 8 9 5 8 
0 6 8 1 6 8 2 6 8 
3 6 8 4 6 8 5 6 8 
6 6 8 7 6 8 8 6 8 
9 6 8 0 7 8 1 7 8 
2 7 8 3 7 8 4 7 8 
5 7 8 6 7 8 7 7 8 
8 7 8 9 7 8 0 8 8 
1 8 8 2 8 8 3 8 8 
4 8 8 5 8 8 6 8 8 
7 8 8 8 8 8 9 8 8 
0 9 8 1 9 8 2 9 8 
3 9 8 4 9 8 5 9 8 
6 9 8 7 9 8 8 9 8 
9 9 8 0 10 8 1 10 8 
2 10 8 3 10 8 4 10 8 
5 10 8 6 10 8 7 10 8 
8 10 8 9 10 8 0 11 8 
1 11 8 2 11 8 3 11 8 
4 11 8 5 11 8 6 11 8 
7 11 8 8 11 8 9 11 8 
0 0 9 1 0 9 2 0 9 
3 0 9 4 0 9 5 0 9 
6 0 9 7 0 9 8 0 9 
9 0 9 0 1 9 1 1 9 
2 1 9 3 1 9 4 1 9 
5 1 9 6 1 9 7 1 9 
8 1 9 9 1 9 0 2 9 
1 2 9 2 2 9 3 2 9 
4 2 9 5 2 9 6 2 9 
7 2 9 8 2 9 9 2 9 
0 3 9 1 3 9 2 3 9 
3 3 9 4 3 9 5 3 9 
6 3 9 7 3 9 8 3 9 
9 3 9 0 4 9 1 4 9 
2 4 9 3 4 9 4 4 9 
5 4 9 6 4 9 7 4 9 
8 4 9 9 4 9 0 5 9 
1 5 9 2 5 9 3 5 9 
4 5 9 5 5 9 6 5 9 
7 5 9 8 5 9 9 5 9 
0 6 9 1 6 9 2 6 9 
3 6 9 4 6 9 5 6 9 
6 6 9 7 6 9 8 6 9 
9 6 9 0 7 9 1 7 9 
2 7 9 3 7 9 4 7 9 
5 7 9 6 7 9 7 7 9 
8 7 9 9 7 9 0 8 9 
1 8 9 2 8 9 3 8 9 
4 8 9 5 8 9 6 8 9 
7 8 9 8 8 9 9 8 9 
0 9 9 1 9 9 2 9 9 
3 9 9 4 9 9 5 9 9 
6 9 9 7 9 9 8 9 9 
9 9 9 0 10 9 1 10 9 
2 10 9 3 10 9 4 10 9 
5 10 9 6 10 9 7 10 9 
8 10 9 9 10 9 0 11 9 
1 11 9 2 11 9 3 11 9 
4 11 9 5 11 9 6 11 9 
7 11 9 8 11 9 9 11 9 
0 0 10 1 0 10 2 0 10 
3 0 10 4 0 10 5 0 10 
6 0 10 7 0 10 8 0 10 
9 0 10 0 1 10 1 1 10 
2 1 10 3 1 10 4 1 10 
5 1 10 6 1 10 7 1 10 
8 1 10 9 1 10 0 2 10 
1 2 10 2 2 10 3 2 10 
4 2 10 5 2 10 6 2 10 
7 2 10 8 2 10 9 2 10 
0 3 10 1 3 10 2 3 10 
3 3 10 4 3 10 5 3 10 
6 3 10 7 3 10 8 3 10 
9 3 10 0 4 10 1 4 10 
2 4 10 3 4 10 4 4 10 
5 4 10 6 4 10 7 4 10 
8 4 10 9 4 10 0 5 10 
1 5 10 2 5 10 3 5 10 
4 5 10 5 5 10 6 5 10 
7 5 10 8 5 10 9 5 10 
0 6 10 1 6 10 2 6 10 
3 6 10 4 6 10 5 6 10 
6 6 10 7 6 10 8 6 10 
9 6 10 0 7 10 1 7 10 
2 7 10 3 7 10 4 7 10 
5 7 10 6 7 10 7 7 10 
8 7 10 9 7 10 0 8 10 
1 8 10 2 8 10 3 8 10 
4 8 10 5 8 10 6 8 10 
7 8 10 8 8 10 9 8 10 
0 9 10 1 9 10 2 9 10 
3 9 10 4 9 10 5 9 10 
6 9 10 7 9 10 8 9 10 
9 9 10 0 10 10 1 10 10 
2 10 10 3 10 10 4 10 10 
5 10 10 6 10 10 7 10 10 
8 10 10 9 10 10 0 11 10 
1 11 10 2 11 10 3 11 10 
4 11 10 5 11 10 6 11 10 
7 11 10 8 11 10 9 11 10 
0.0644887 -0.0527635 0.00128977 1.0703 -0.0447333 0.0014059 2.07585 -0.0344779 0.00151703 
3.08038 -0.0219224 0.00160764 4.08297 -0.00754315 0.00165949 5.08297 0.00754315 0.00165949 
6.08038 0.0219224 0.00160764 7.07585 0.0344779 0.00151703 8.0703 0.0447333 0.0014059 
9.06449 0.0527635 0.00128977 0.0589168 0.941083 0.00144019 1.06577 0.948848 0.00160764 
2.07283 0.959539 0.00178028 3.07904 0.973655 0.00193198 4.0828 0.9908 0.00202398 
5.0828 1.0092 0.00202398 6.07904 1.02635 0.00193198 7.07283 1.04046 0.00178028 
8.06577 1.05115 0.00160764 9.05892 1.05892 0.00144019 0.0511522 1.93423 0.00160764 
1.05891 1.94109 0.00185149 2.06779 1.95158 0.00213051 3.07656 1.96719 0.00240628 
4.08246 1.98822 0.00259147 5.08246 2.01178 0.00259147 6.07656 2.03281 0.00240628 
7.06779 2.04842 0.00213051 8.05891 2.05891 0.00185149 9.05115 2.06577 0.00160764 
0.040461 2.92717 0.00178028 1.04842 2.93221 0.00213051 2.0589 2.9411 0.00259147 
3.07141 2.95716 0.00314191 4.08164 2.98367 0.00359212 5.08164 3.01633 0.00359212 
6.07141 3.04284 0.00314191 7.0589 3.0589 0.00259147 8.04842 3.06779 0.00213051 
9.04046 3.07283 0.00178028 0.0263452 3.92096 0.00193198 1.03281 3.92344 0.00240628 
[...]
POINT_DATA 2640
VECTORS vectors float
0.0644887 -0.0527635 0.00128977 0.0702951 -0.0447333 0.0014059 0.0758513 -0.0344779 0.00151703 
0.080382 -0.0219224 0.00160764 0.0829746 -0.00754315 0.00165949 0.0829746 0.00754315 0.00165949 
0.080382 0.0219224 0.00160764 0.0758513 0.0344779 0.00151703 0.0702951 0.0447333 0.0014059 
0.0644887 0.0527635 0.00128977 0.0589168 -0.0589168 0.00144019 0.0657671 -0.0511522 0.00160764 
0.0728298 -0.040461 0.00178028 0.0790357 -0.0263452 0.00193198 0.0827992 -0.00919991 0.00202398 
0.0827992 0.00919991 0.00202398 0.0790357 0.0263452 0.00193198 0.0728298 0.040461 0.00178028 
0.0657671 0.0511522 0.00160764 0.0589168 0.0589168 0.00144019 0.0511522 -0.0657671 0.00160764 
0.058911 -0.058911 0.00185149 0.067789 -0.0484207 0.00213051 0.0765635 -0.0328129 0.00240628 
0.0824559 -0.0117794 0.00259147 0.0824559 0.0117794 0.00259147 0.0765635 0.0328129 0.00240628 
0.067789 0.0484207 0.00213051 0.058911 0.058911 0.00185149 0.0511522 0.0657671 0.00160764 
0.040461 -0.0728298 0.00178028 0.0484207 -0.067789 0.00213051 0.0588971 -0.0588971 0.00259147 
0.0714069 -0.0428442 0.00314191 0.0816391 -0.0163278 0.00359212 0.0816391 0.0163278 0.00359212 
0.0714069 0.0428442 0.00314191 0.0588971 0.0588971 0.00259147 0.0484207 0.067789 0.00213051 
0.040461 0.0728298 0.00178028 0.0263452 -0.0790357 0.00193198 0.0328129 -0.0765635 0.00240628 
0.0428442 -0.0714069 0.00314191 0.0588465 -0.0588465 0.00431541 0.0788663 -0.0262888 0.00578353 
0.0788663 0.0262888 0.00578353 0.0588465 0.0588465 0.00431541 0.0428442 0.0714069 0.00314191 
0.0328129 0.0765635 0.00240628 0.0263452 0.0790357 0.00193198 0.00919991 -0.0827992 0.00202398 
0.0117794 -0.0824559 0.00259147 0.0163278 -0.0816391 0.00359212 0.0262888 -0.0788663 0.00578353 
0.0582253 -0.0582253 0.0128096 0.0582253 0.0582253 0.0128096 0.0262888 0.0788663 0.00578353 
0.0163278 0.0816391 0.00359212 0.0117794 0.0824559 0.00259147 0.00919991 0.0827992 0.00202398 
-0.00919991 -0.0827992 0.00202398 -0.0117794 -0.0824559 0.00259147 -0.0163278 -0.0816391 0.00359212 
-0.0262888 -0.0788663 0.00578353 -0.0582253 -0.0582253 0.0128096 -0.0582253 0.0582253 0.0128096 
-0.0262888 0.0788663 0.00578353 -0.0163278 0.0816391 0.00359212 -0.0117794 0.0824559 0.00259147 
-0.00919991 0.0827992 0.00202398 -0.0263452 -0.0790357 0.00193198 -0.0328129 -0.0765635 0.00240628 
-0.0428442 -0.0714069 0.00314191 -0.0588465 -0.0588465 0.00431541 -0.0788663 -0.0262888 0.00578353 
-0.0788663 0.0262888 0.00578353 -0.0588465 0.0588465 0.00431541 -0.0428442 0.0714069 0.00314191 
-0.0328129 0.0765635 0.00240628 -0.0263452 0.0790357 0.00193198 -0.040461 -0.0728298 0.00178028 
-0.0484207 -0.067789 0.00213051 -0.0588971 -0.0588971 0.00259147 -0.0714069 -0.0428442 0.00314191 
-0.0816391 -0.0163278 0.00359212 -0.0816391 0.0163278 0.00359212 -0.0714069 0.0428442 0.00314191 
-0.0588971 0.0588971 0.00259147 -0.0484207 0.067789 0.00213051 -0.040461 0.0728298 0.00178028 
-0.0511522 -0.0657671 0.00160764 -0.058911 -0.058911 0.00185149 -0.067789 -0.0484207 0.00213051 
-0.0765635 -0.0328129 0.00240628 -0.0824559 -0.0117794 0.00259147 -0.0824559 0.0117794 0.00259147 
-0.0765635 0.0328129 0.00240628 -0.067789 0.0484207 0.00213051 -0.058911 0.058911 0.00185149 
-0.0511522 0.0657671 0.00160764 -0.0589168 -0.0589168 0.00144019 -0.0657671 -0.0511522 0.00160764 
-0.0728298 -0.040461 0.00178028 -0.0790357 -0.0263452 0.00193198 -0.0827992 -0.00919991 0.00202398 
-0.0827992 0.00919991 0.00202398 -0.0790357 0.0263452 0.00193198 -0.0728298 0.040461 0.00178028 
-0.0657671 0.0511522 0.00160764 -0.0589168 0.0589168 0.00144019 -0.0644887 -0.0527635 0.00128977 
-0.0702951 -0.0447333 0.0014059 -0.0758513 -0.0344779 0.00151703 -0.080382 -0.0219224 0.00160764 
-0.0829746 -0.00754315 0.00165949 -0.0829746 0.00754315 0.00165949 -0.080382 0.0219224 0.00160764 
-0.0758513 0.0344779 0.00151703 -0.0702951 0.0447333 0.0014059 -0.0644887 0.0527635 0.00128977 
0.128931 -0.105489 0.00515724 0.14053 -0.0894283 0.00562121 0.151627 -0.0689215 0.00606509 
0.160674 -0.0438203 0.00642698 0.165851 -0.0150773 0.00663403 0.165851 0.0150773 0.00663403 
0.160674 0.0438203 0.00642698 0.151627 0.0689215 0.00606509 0.14053 0.0894283 0.00562121 
0.128931 0.105489 0.00515724 0.117781 -0.117781 0.00575817 0.131461 -0.102247 0.00642698 
0.14556 -0.0808667 0.00711627 0.157944 -0.052648 0.00772171 0.165452 -0.0183836 0.00808877 
0.165452 0.0183836 0.00808877 0.157944 0.052648 0.00772171 0.14556 0.0808667 0.00711627 
0.131461 0.102247 0.00642698 0.117781 0.117781 0.00575817 0.102247 -0.131461 0.00642698 
0.117735 -0.117735 0.00740048 0.135445 -0.0967466 0.0085137 0.152936 -0.0655439 0.00961311 
0.164673 -0.0235247 0.0103509 0.164673 0.0235247 0.0103509 0.152936 0.0655439 0.00961311 
0.135445 0.0967466 0.0085137 0.117735 0.117735 0.00740048 0.102247 0.131461 0.00642698 
0.0808667 -0.14556 0.00711627 0.0967466 -0.135445 0.0085137 0.117624 -0.117624 0.0103509 
0.14251 -0.0855062 0.0125409 0.162825 -0.032565 0.0143286 0.162825 0.032565 0.0143286 
0.14251 0.0855062 0.0125409 0.117624 0.117624 0.0103509 0.0967466 0.135445 0.0085137 
0.0808667 0.14556 0.00711627 0.052648 -0.157944 0.00772171 0.0655439 -0.152936 0.00961311 
0.0855062 -0.14251 0.0125409 0.117222 -0.117222 0.0171926 0.156605 -0.0522017 0.0229688 
0.156605 0.0522017 0.0229688 0.117222 0.117222 0.0171926 0.0855062 0.14251 0.0125409 
0.0655439 0.152936 0.00961311 0.052648 0.157944 0.00772171 0.0183836 -0.165452 0.00808877 
0.0235247 -0.164673 0.0103509 0.032565 -0.162825 0.0143286 0.0522017 -0.156605 0.0229688 
0.11253 -0.11253 0.0495134 0.11253 0.11253 0.0495134 0.0522017 0.156605 0.0229688 
0.032565 0.162825 0.0143286 0.0235247 0.164673 0.0103509 0.0183836 0.165452 0.00808877 
-0.0183836 -0.165452 0.00808877 -0.0235247 -0.164673 0.0103509 -0.032565 -0.162825 0.0143286 
-0.0522017 -0.156605 0.0229688 -0.11253 -0.11253 0.0495134 -0.11253 0.11253 0.0495134 
-0.0522017 0.156605 0.0229688 -0.032565 0.162825 0.0143286 -0.0235247 0.164673 0.0103509 
-0.0183836 0.165452 0.00808877 -0.052648 -0.157944 0.00772171 -0.0655439 -0.152936 0.00961311 
-0.0855062 -0.14251 0.0125409 -0.117222 -0.117222 0.0171926 -0.156605 -0.0522017 0.0229688 
-0.156605 0.0522017 0.0229688 -0.117222 0.117222 0.0171926 -0.0855062 0.14251 0.0125409 
-0.0655439 0.152936 0.00961311 -0.052648 0.157944 0.00772171 -0.0808667 -0.14556 0.00711627 
-0.0967466 -0.135445 0.0085137 -0.117624 -0.117624 0.0103509 -0.14251 -0.0855062 0.0125409 
-0.162825 -0.032565 0.0143286 -0.162825 0.032565 0.0143286 -0.14251 0.0855062 0.0125409 
-0.117624 0.117624 0.0103509 -0.0967466 0.135445 0.0085137 -0.0808667 0.14556 0.00711627 
-0.102247 -0.131461 0.00642698 -0.117735 -0.117735 0.00740048 -0.135445 -0.0967466 0.0085137 
-0.152936 -0.0655439 0.00961311 -0.164673 -0.0235247 0.0103509 -0.164673 0.0235247 0.0103509 
-0.152936 0.0655439 0.00961311 -0.135445 0.0967466 0.0085137 -0.117735 0.117735 0.00740048 
-0.102247 0.131461 0.00642698 -0.117781 -0.117781 0.00575817 -0.131461 -0.102247 0.00642698 
-0.14556 -0.0808667 0.00711627 -0.157944 -0.052648 0.00772171 -0.165452 -0.0183836 0.00808877 
-0.165452 0.0183836 0.00808877 -0.157944 0.052648 0.00772171 -0.14556 0.0808667 0.00711627 
-0.131461 0.102247 0.00642698 -0.117781 0.117781 0.00575817 -0.128931 -0.105489 0.00515724 
-0.14053 -0.0894283 0.00562121 -0.151627 -0.0689215 0.00606509 -0.160674 -0.0438203 0.00642698 
-0.165851 -0.0150773 0.00663403 -0.165851 0.0150773 0.00663403 -0.160674 0.0438203 0.00642698 
-0.151627 0.0689215 0.00606509 -0.14053 0.0894283 0.00562121 -0.128931 0.105489 0.00515724 
0.193281 -0.158139 0.0115969 0.210646 -0.134047 0.0126387 0.227253 -0.103297 0.0136352 
0.240788 -0.0656694 0.0144473 0.24853 -0.0225936 0.0149118 0.24853 0.0225936 0.0149118 
0.240788 0.0656694 0.0144473 0.227253 0.103297 0.0136352 0.210646 0.134047 0.0126387 
0.193281 0.158139 0.0115969 0.17654 -0.17654 0.0129462 0.197008 -0.153229 0.0144473 
0.218092 -0.121162 0.0159934 0.236599 -0.0788663 0.0173506 0.247814 -0.0275348 0.018173 
0.247814 0.0275348 0.018173 0.236599 0.0788663 0.0173506 0.218092 0.121162 0.0159934 
0.197008 0.153229 0.0144473 0.17654 0.17654 0.0129462 0.153229 -0.197008 0.0144473 
0.176385 -0.176385 0.0166306 0.202837 -0.144884 0.0191247 0.228928 -0.0981121 0.0215847 
0.246416 -0.0352023 0.0232335 0.246416 0.0352023 0.0232335 0.228928 0.0981121 0.0215847 
0.202837 0.144884 0.0191247 0.176385 0.176385 0.0166306 0.153229 0.197008 0.0144473 
0.121162 -0.218092 0.0159934 0.144884 -0.202837 0.0191247 0.176012 -0.176012 0.0232335 
0.213013 -0.127808 0.0281177 0.243117 -0.0486234 0.0320914 0.243117 0.0486234 0.0320914 
0.213013 0.127808 0.0281177 0.176012 0.176012 0.0232335 0.144884 0.202837 0.0191247 
0.121162 0.218092 0.0159934 0.0788663 -0.236599 0.0173506 0.0981121 -0.228928 0.0215847 
0.127808 -0.213013 0.0281177 0.174676 -0.174676 0.0384287 0.232168 -0.0773894 0.051077 
0.232168 0.0773894 0.051077 0.174676 0.174676 0.0384287 0.127808 0.213013 0.0281177 
0.0981121 0.228928 0.0215847 0.0788663 0.236599 0.0173506 0.0275348 -0.247814 0.018173 
0.0352023 -0.246416 0.0232335 0.0486234 -0.243117 0.0320914 0.0773894 -0.232168 0.051077 
0.160191 -0.160191 0.105726 0.160191 0.160191 0.105726 0.0773894 0.232168 0.051077 
0.0486234 0.243117 0.0320914 0.0352023 0.246416 0.0232335 0.0275348 0.247814 0.018173 
-0.0275348 -0.247814 0.018173 -0.0352023 -0.246416 0.0232335 -0.0486234 -0.243117 0.0320914 
-0.0773894 -0.232168 0.051077 -0.160191 -0.160191 0.105726 -0.160191 0.160191 0.105726 
-0.0773894 0.232168 0.051077 -0.0486234 0.243117 0.0320914 -0.0352023 0.246416 0.0232335 
-0.0275348 0.247814 0.018173 -0.0788663 -0.236599 0.0173506 -0.0981121 -0.228928 0.0215847 
-0.127808 -0.213013 0.0281177 -0.174676 -0.174676 0.0384287 -0.232168 -0.0773894 0.051077 
-0.232168 0.0773894 0.051077 -0.174676 0.174676 0.0384287 -0.127808 0.213013 0.0281177 
-0.0981121 0.228928 0.0215847 -0.0788663 0.236599 0.0173506 -0.121162 -0.218092 0.0159934 
-0.144884 -0.202837 0.0191247 -0.176012 -0.176012 0.0232335 -0.213013 -0.127808 0.0281177 
-0.243117 -0.0486234 0.0320914 -0.243117 0.0486234 0.0320914 -0.213013 0.127808 0.0281177 
-0.176012 0.176012 0.0232335 -0.144884 0.202837 0.0191247 -0.121162 0.218092 0.0159934 
-0.153229 -0.197008 0.0144473 -0.176385 -0.176385 0.0166306 -0.202837 -0.144884 0.0191247 
-0.228928 -0.0981121 0.0215847 -0.246416 -0.0352023 0.0232335 -0.246416 0.0352023 0.0232335 
-0.228928 0.0981121 0.0215847 -0.202837 0.144884 0.0191247 -0.176385 0.176385 0.0166306 
-0.153229 0.197008 0.0144473 -0.17654 -0.17654 0.0129462 -0.197008 -0.153229 0.0144473 
-0.218092 -0.121162 0.0159934 -0.236599 -0.0788663 0.0173506 -0.247814 -0.0275348 0.018173 
-0.247814 0.0275348 0.018173 -0.236599 0.0788663 0.0173506 -0.218092 0.121162 0.0159934 
-0.197008 0.153229 0.0144473 -0.17654 0.17654 0.0129462 -0.193281 -0.158139 0.0115969 
-0.210646 -0.134047 0.0126387 -0.227253 -0.103297 0.0136352 -0.240788 -0.0656694 0.0144473 
-0.24853 -0.0225936 0.0149118 -0.24853 0.0225936 0.0149118 -0.240788 0.0656694 0.0144473 
-0.227253 0.103297 0.0136352 -0.210646 0.134047 0.0126387 -0.193281 0.158139 0.0115969 
0.257493 -0.210676 0.0205994 0.280582 -0.178552 0.0224466 0.302654 -0.13757 0.0242123 
0.320634 -0.0874457 0.0256507 0.330916 -0.0300833 0.0264733 0.330916 0.0300833 0.0264733 
0.320634 0.0874457 0.0256507 0.302654 0.13757 0.0242123 0.280582 0.178552 0.0224466 
0.257493 0.210676 0.0205994 0.235141 -0.235141 0.0229916 0.262337 -0.20404 0.0256507 
0.290327 -0.161293 0.0283875 0.314876 -0.104959 0.0307879 0.329741 -0.0366379 0.0322414 
0.329741 0.0366379 0.0322414 0.314876 0.104959 0.0307879 0.290327 0.161293 0.0283875 
0.262337 0.20404 0.0256507 0.235141 0.235141 0.0229916 0.20404 -0.262337 0.0256507 
0.234776 -0.234776 0.0295148 0.269836 -0.19274 0.0339223 0.304357 -0.130439 0.038262 
0.327457 -0.0467796 0.041166 0.327457 0.0467796 0.041166 0.304357 0.130439 0.038262 
0.269836 0.19274 0.0339223 0.234776 0.234776 0.0295148 0.20404 0.262337 0.0256507 
0.161293 -0.290327 0.0283875 0.19274 -0.269836 0.0339223 0.233898 -0.233898 0.041166 
0.28263 -0.169578 0.049743 0.322099 -0.0644197 0.0566894 0.322099 0.0644197 0.0566894 
0.28263 0.169578 0.049743 0.233898 0.233898 0.041166 0.19274 0.269836 0.0339223 
0.161293 0.290327 0.0283875 0.104959 -0.314876 0.0307879 0.130439 -0.304357 0.038262 
0.169578 -0.28263 0.049743 0.23079 -0.23079 0.0676984 0.304652 -0.101551 0.0893645 
0.304652 0.101551 0.0893645 0.23079 0.23079 0.0676984 0.169578 0.28263 0.049743 
0.130439 0.304357 0.038262 0.104959 0.314876 0.0307879 0.0366379 -0.329741 0.0322414 
0.0467796 -0.327457 0.041166 0.0644197 -0.322099 0.0566894 0.101551 -0.304652 0.0893645 
0.200122 -0.200122 0.176107 0.200122 0.200122 0.176107 0.101551 0.304652 0.0893645 
0.0644197 0.322099 0.0566894 0.0467796 0.327457 0.041166 0.0366379 0.329741 0.0322414 
-0.0366379 -0.329741 0.0322414 -0.0467796 -0.327457 0.041166 -0.0644197 -0.322099 0.0566894 
-0.101551 -0.304652 0.0893645 -0.200122 -0.200122 0.176107 -0.200122 0.200122 0.176107 
-0.101551 0.304652 0.0893645 -0.0644197 0.322099 0.0566894 -0.0467796 0.327457 0.041166 
-0.0366379 0.329741 0.0322414 -0.104959 -0.314876 0.0307879 -0.130439 -0.304357 0.038262 
-0.169578 -0.28263 0.049743 -0.23079 -0.23079 0.0676984 -0.304652 -0.101551 0.0893645 
-0.304652 0.101551 0.0893645 -0.23079 0.23079 0.0676984 -0.169578 0.28263 0.049743 
-0.130439 0.304357 0.038262 -0.104959 0.314876 0.0307879 -0.161293 -0.290327 0.0283875 
-0.19274 -0.269836 0.0339223 -0.233898 -0.233898 0.041166 -0.28263 -0.169578 0.049743 
-0.322099 -0.0644197 0.0566894 -0.322099 0.0644197 0.0566894 -0.28263 0.169578 0.049743 
-0.233898 0.233898 0.041166 -0.19274 0.269836 0.0339223 -0.161293 0.290327 0.0283875 
-0.20404 -0.262337 0.0256507 -0.234776 -0.234776 0.0295148 -0.269836 -0.19274 0.0339223 
-0.304357 -0.130439 0.038262 -0.327457 -0.0467796 0.041166 -0.327457 0.0467796 0.041166 
-0.304357 0.130439 0.038262 -0.269836 0.19274 0.0339223 -0.234776 0.234776 0.0295148 
-0.20404 0.262337 0.0256507 -0.235141 -0.235141 0.0229916 -0.262337 -0.20404 0.0256507 
-0.290327 -0.161293 0.0283875 -0.314876 -0.104959 0.0307879 -0.329741 -0.0366379 0.0322414 
-0.329741 0.0366379 0.0322414 -0.314876 0.104959 0.0307879 -0.290327 0.161293 0.0283875 
-0.262337 0.20404 0.0256507 -0.235141 0.235141 0.0229916 -0.257493 -0.210676 0.0205994 
-0.280582 -0.178552 0.0224466 -0.302654 -0.13757 0.0242123 -0.320634 -0.0874457 0.0256507 
-0.330916 -0.0300833 0.0264733 -0.330916 0.0300833 0.0264733 -0.320634 0.0874457 0.0256507 
-0.302654 0.13757 0.0242123 -0.280582 0.178552 0.0224466 -0.257493 0.210676 0.0205994 
0.321521 -0.263062 0.0321521 0.350281 -0.222906 0.0350281 0.377757 -0.171708 0.0377757 
0.400127 -0.109126 0.0400127 0.412913 -0.0375375 0.0412913 0.412913 0.0375375 0.0412913 
0.400127 0.109126 0.0400127 0.377757 0.171708 0.0377757 0.350281 0.222906 0.0350281 
0.321521 0.263062 0.0321521 0.293534 -0.293534 0.0358763 0.327377 -0.254626 0.0400127 
0.362171 -0.201206 0.0442653 0.392654 -0.130885 0.047991 0.411096 -0.0456774 0.0502451 
0.411096 0.0456774 0.0502451 0.392654 0.130885 0.047991 0.362171 0.201206 0.0442653 
0.327377 0.254626 0.0400127 0.293534 0.293534 0.0358763 0.254626 -0.327377 0.0400127 
0.292826 -0.292826 0.0460155 0.336317 -0.240227 0.0528498 0.379044 -0.162447 0.059564 
0.407577 -0.0582253 0.0640478 0.407577 0.0582253 0.0640478 0.379044 0.162447 0.059564 
0.336317 0.240227 0.0528498 0.292826 0.292826 0.0460155 0.254626 0.327377 0.0400127 
0.201206 -0.362171 0.0442653 0.240227 -0.336317 0.0528498 0.291126 -0.291126 0.0640478 
0.351096 -0.210658 0.0772411 0.399388 -0.0798775 0.0878653 0.399388 0.0798775 0.0878653 
0.351096 0.210658 0.0772411 0.291126 0.291126 0.0640478 0.240227 0.336317 0.0528498 
0.201206 0.362171 0.0442653 0.130885 -0.392654 0.047991 0.162447 -0.379044 0.059564 
0.210658 -0.351096 0.0772411 0.285198 -0.285198 0.104573 0.373342 -0.124447 0.136892 
0.373342 0.124447 0.136892 0.285198 0.285198 0.104573 0.210658 0.351096 0.0772411 
0.162447 0.379044 0.059564 0.130885 0.392654 0.047991 0.0456774 -0.411096 0.0502451 
0.0582253 -0.407577 0.0640478 0.0798775 -0.399388 0.0878653 0.124447 -0.373342 0.136892 
0.232561 -0.232561 0.255817 0.232561 0.232561 0.255817 0.124447 0.373342 0.136892 
0.0798775 0.399388 0.0878653 0.0582253 0.407577 0.0640478 0.0456774 0.411096 0.0502451 
-0.0456774 -0.411096 0.0502451 -0.0582253 -0.407577 0.0640478 -0.0798775 -0.399388 0.0878653 
-0.124447 -0.373342 0.136892 -0.232561 -0.232561 0.255817 -0.232561 0.232561 0.255817 
-0.124447 0.373342 0.136892 -0.0798775 0.399388 0.0878653 -0.0582253 0.407577 0.0640478 
-0.0456774 0.411096 0.0502451 -0.130885 -0.392654 0.047991 -0.162447 -0.379044 0.059564 
-0.210658 -0.351096 0.0772411 -0.285198 -0.285198 0.104573 -0.373342 -0.124447 0.136892 
-0.373342 0.124447 0.136892 -0.285198 0.285198 0.104573 -0.210658 0.351096 0.0772411 
-0.162447 0.379044 0.059564 -0.130885 0.392654 0.047991 -0.201206 -0.362171 0.0442653 
-0.240227 -0.336317 0.0528498 -0.291126 -0.291126 0.0640478 -0.351096 -0.210658 0.0772411 
-0.399388 -0.0798775 0.0878653 -0.399388 0.0798775 0.0878653 -0.351096 0.210658 0.0772411 
-0.291126 0.291126 0.0640478 -0.240227 0.336317 0.0528498 -0.201206 0.362171 0.0442653 
-0.254626 -0.327377 0.0400127 -0.292826 -0.292826 0.0460155 -0.336317 -0.240227 0.0528498 
-0.379044 -0.162447 0.059564 -0.407577 -0.0582253 0.0640478 -0.407577 0.0582253 0.0640478 
-0.379044 0.162447 0.059564 -0.336317 0.240227 0.0528498 -0.292826 0.292826 0.0460155 
-0.254626 0.327377 0.0400127 -0.293534 -0.293534 0.0358763 -0.327377 -0.254626 0.0400127 
-0.362171 -0.201206 0.0442653 -0.392654 -0.130885 0.047991 -0.411096 -0.0456774 0.0502451 
-0.411096 0.0456774 0.0502451 -0.392654 0.130885 0.047991 -0.362171 0.201206 0.0442653 
-0.327377 0.254626 0.0400127 -0.293534 0.293534 0.0358763 -0.321521 -0.263062 0.0321521 
-0.350281 -0.222906 0.0350281 -0.377757 -0.171708 0.0377757 -0.400127 -0.109126 0.0400127 
-0.412913 -0.0375375 0.0412913 -0.412913 0.0375375 0.0412913 -0.400127 0.109126 0.0400127 
-0.377757 0.171708 0.0377757 -0.350281 0.222906 0.0350281 -0.321521 0.263062 0.0321521 
0.38532 -0.315262 0.0462384 0.419685 -0.267073 0.0503623 0.452491 -0.205678 0.0542989 
0.479181 -0.130686 0.0575018 0.494428 -0.044948 0.0593314 0.494428 0.044948 0.0593314 
0.479181 0.130686 0.0575018 0.452491 0.205678 0.0542989 0.419685 0.267073 0.0503623 
0.38532 0.315262 0.0462384 0.351667 -0.351667 0.0515779 0.392057 -0.304934 0.0575018 
0.43353 -0.24085 0.0635844 0.469816 -0.156605 0.0689063 0.491745 -0.0546383 0.0721226 
0.491745 0.0546383 0.0721226 0.469816 0.156605 0.0689063 0.43353 0.24085 0.0635844 
0.392057 0.304934 0.0575018 0.351667 0.351667 0.0515779 0.304934 -0.392057 0.0575018 
0.350452 -0.350452 0.0660852 0.40216 -0.287257 0.0758358 0.452821 -0.194066 0.0853891 
0.486569 -0.0695099 0.0917531 0.486569 0.0695099 0.0917531 0.452821 0.194066 0.0853891 
0.40216 0.287257 0.0758358 0.350452 0.350452 0.0660852 0.304934 0.392057 0.0575018 
0.24085 -0.43353 0.0635844 0.287257 -0.40216 0.0758358 0.34755 -0.34755 0.0917531 
0.418165 -0.250899 0.110396 0.474644 -0.0949288 0.125306 0.474644 0.0949288 0.125306 
0.418165 0.250899 0.110396 0.34755 0.34755 0.0917531 0.287257 0.40216 0.0758358 
0.24085 0.43353 0.0635844 0.156605 -0.469816 0.0689063 0.194066 -0.452821 0.0853891 
0.250899 -0.418165 0.110396 0.337591 -0.337591 0.14854 0.437737 -0.145912 0.192604 
0.437737 0.145912 0.192604 0.337591 0.337591 0.14854 0.250899 0.418165 0.110396 
0.194066 0.452821 0.0853891 0.156605 0.469816 0.0689063 0.0546383 -0.491745 0.0721226 
0.0695099 -0.486569 0.0917531 0.0949288 -0.474644 0.125306 0.145912 -0.437737 0.192604 
0.258461 -0.258461 0.341168 0.258461 0.258461 0.341168 0.145912 0.437737 0.192604 
0.0949288 0.474644 0.125306 0.0695099 0.486569 0.0917531 0.0546383 0.491745 0.0721226 
-0.0546383 -0.491745 0.0721226 -0.0695099 -0.486569 0.0917531 -0.0949288 -0.474644 0.125306 
-0.145912 -0.437737 0.192604 -0.258461 -0.258461 0.341168 -0.258461 0.258461 0.341168 