# vtk DataFile Version 3.0
vtk output
ASCII
DATASET STRUCTURED_POINTS
DIMENSIONS 10 12 11
SPACING 1 1 1
ORIGIN 0 0 0
POINT_DATA 1320
VECTORS vectors float
0.0644887 -0.0527635 0.00128977 0.0702951 -0.0447333 0.0014059 0.0758513 -0.0344779 0.00151703 
0.080382 -0.0219224 0.00160764 0.0829746 -0.00754315 0.00165949 0.0829746 0.00754315 0.00165949 
0.080382 0.0219224 0.00160764 0.0758513 0.0344779 0.00151703 0.0702951 0.0447333 0.0014059 
0.0644887 0.0527635 0.00128977 0.0589168 -0.0589168 0.00144019 0.0657671 -0.0511522 0.00160764 
0.0728298 -0.040461 0.00178028 0.0790357 -0.0263452 0.00193198 0.0827992 -0.00919991 0.00202398 
0.0827992 0.00919991 0.00202398 0.0790357 0.0263452 0.00193198 0.0728298 0.040461 0.00178028 
0.0657671 0.0511522 0.00160764 0.0589168 0.0589168 0.00144019 0.0511522 -0.0657671 0.00160764 
0.058911 -0.058911 0.00185149 0.067789 -0.0484207 0.00213051 0.0765635 -0.0328129 0.00240628 
0.0824559 -0.0117794 0.00259147 0.0824559 0.0117794 0.00259147 0.0765635 0.0328129 0.00240628 
0.067789 0.0484207 0.00213051 0.058911 0.058911 0.00185149 0.0511522 0.0657671 0.00160764 
0.040461 -0.0728298 0.00178028 0.0484207 -0.067789 0.00213051 0.0588971 -0.0588971 0.00259147 
0.0714069 -0.0428442 0.00314191 0.0816391 -0.0163278 0.00359212 0.0816391 0.0163278 0.00359212 
0.0714069 0.0428442 0.00314191 0.0588971 0.0588971 0.00259147 0.0484207 0.067789 0.00213051 
0.040461 0.0728298 0.00178028 0.0263452 -0.0790357 0.00193198 0.0328129 -0.0765635 0.00240628 
0.0428442 -0.0714069 0.00314191 0.0588465 -0.0588465 0.00431541 0.0788663 -0.0262888 0.00578353 
0.0788663 0.0262888 0.00578353 0.0588465 0.0588465 0.00431541 0.0428442 0.0714069 0.00314191 
0.0328129 0.0765635 0.00240628 0.0263452 0.0790357 0.00193198 0.00919991 -0.0827992 0.00202398 
0.0117794 -0.0824559 0.00259147 0.0163278 -0.0816391 0.00359212 0.0262888 -0.0788663 0.00578353 
0.0582253 -0.0582253 0.0128096 0.0582253 0.0582253 0.0128096 0.0262888 0.0788663 0.00578353 
0.0163278 0.0816391 0.00359212 0.0117794 0.0824559 0.00259147 0.00919991 0.0827992 0.00202398 
-0.00919991 -0.0827992 0.00202398 -0.0117794 -0.0824559 0.00259147 -0.0163278 -0.0816391 0.00359212 
-0.0262888 -0.0788663 0.00578353 -0.0582253 -0.0582253 0.0128096 -0.0582253 0.0582253 0.0128096 
-0.0262888 0.0788663 0.00578353 -0.0163278 0.0816391 0.00359212 -0.0117794 0.0824559 0.00259147 
-0.00919991 0.0827992 0.00202398 -0.0263452 -0.0790357 0.00193198 -0.0328129 -0.0765635 0.00240628 
-0.0428442 -0.0714069 0.00314191 -0.0588465 -0.0588465 0.00431541 -0.0788663 -0.0262888 0.00578353 
-0.0788663 0.0262888 0.00578353 -0.0588465 0.0588465 0.00431541 -0.0428442 0.0714069 0.00314191 
-0.0328129 0.0765635 0.00240628 -0.0263452 0.0790357 0.00193198 -0.040461 -0.0728298 0.00178028 
-0.0484207 -0.067789 0.00213051 -0.0588971 -0.0588971 0.00259147 -0.0714069 -0.0428442 0.00314191 
-0.0816391 -0.0163278 0.00359212 -0.0816391 0.0163278 0.00359212 -0.0714069 0.0428442 0.00314191 
-0.0588971 0.0588971 0.00259147 -0.0484207 0.067789 0.00213051 -0.040461 0.0728298 0.00178028 
-0.0511522 -0.0657671 0.00160764 -0.058911 -0.058911 0.00185149 -0.067789 -0.0484207 0.00213051 
-0.0765635 -0.0328129 0.00240628 -0.0824559 -0.0117794 0.00259147 -0.0824559 0.0117794 0.00259147 
-0.0765635 0.0328129 0.00240628 -0.067789 0.0484207 0.00213051 -0.058911 0.058911 0.00185149 
-0.0511522 0.0657671 0.00160764 -0.0589168 -0.0589168 0.00144019 -0.0657671 -0.0511522 0.00160764 
-0.0728298 -0.040461 0.00178028 -0.0790357 -0.0263452 0.00193198 -0.0827992 -0.00919991 0.00202398 
-0.0827992 0.00919991 0.00202398 -0.0790357 0.0263452 0.00193198 -0.0728298 0.040461 0.00178028 
-0.0657671 0.0511522 0.00160764 -0.0589168 0.0589168 0.00144019 -0.0644887 -0.0527635 0.00128977 
-0.0702951 -0.0447333 0.0014059 -0.0758513 -0.0344779 0.00151703 -0.080382 -0.0219224 0.00160764 
-0.0829746 -0.00754315 0.00165949 -0.0829746 0.00754315 0.00165949 -0.080382 0.0219224 0.00160764 
-0.0758513 0.0344779 0.00151703 -0.0702951 0.0447333 0.0014059 -0.0644887 0.0527635 0.00128977 
0.128931 -0.105489 0.00515724 0.14053 -0.0894283 0.00562121 0.151627 -0.0689215 0.00606509 
0.160674 -0.0438203 0.00642698 0.165851 -0.0150773 0.00663403 0.165851 0.0150773 0.00663403 
0.160674 0.0438203 0.00642698 0.151627 0.0689215 0.00606509 0.14053 0.0894283 0.00562121 
0.128931 0.105489 0.00515724 0.117781 -0.117781 0.00575817 0.131461 -0.102247 0.00642698 
0.14556 -0.0808667 0.00711627 0.157944 -0.052648 0.00772171 0.165452 -0.0183836 0.00808877 
0.165452 0.0183836 0.00808877 0.157944 0.052648 0.00772171 0.14556 0.0808667 0.00711627 
0.131461 0.102247 0.00642698 0.117781 0.117781 0.00575817 0.102247 -0.131461 0.00642698 
0.117735 -0.117735 0.00740048 0.135445 -0.0967466 0.0085137 0.152936 -0.0655439 0.00961311 
0.164673 -0.0235247 0.0103509 0.164673 0.0235247 0.0103509 0.152936 0.0655439 0.00961311 
0.135445 0.0967466 0.0085137 0.117735 0.117735 0.00740048 0.102247 0.131461 0.00642698 
0.0808667 -0.14556 0.00711627 0.0967466 -0.135445 0.0085137 0.117624 -0.117624 0.0103509 
0.14251 -0.0855062 0.0125409 0.162825 -0.032565 0.0143286 0.162825 0.032565 0.0143286 
0.14251 0.0855062 0.0125409 0.117624 0.117624 0.0103509 0.0967466 0.135445 0.0085137 
0.0808667 0.14556 0.00711627 0.052648 -0.157944 0.00772171 0.0655439 -0.152936 0.00961311 
0.0855062 -0.14251 0.0125409 0.117222 -0.117222 0.0171926 0.156605 -0.0522017 0.0229688 
0.156605 0.0522017 0.0229688 0.117222 0.117222 0.0171926 0.0855062 0.14251 0.0125409 
0.0655439 0.152936 0.00961311 0.052648 0.157944 0.00772171 0.0183836 -0.165452 0.00808877 
0.0235247 -0.164673 0.0103509 0.032565 -0.162825 0.0143286 0.0522017 -0.156605 0.0229688 
0.11253 -0.11253 0.0495134 0.11253 0.11253 0.0495134 0.0522017 0.156605 0.0229688 
0.032565 0.162825 0.0143286 0.0235247 0.164673 0.0103509 0.0183836 0.165452 0.00808877 
-0.0183836 -0.165452 0.00808877 -0.0235247 -0.164673 0.0103509 -0.032565 -0.162825 0.0143286 
-0.0522017 -0.156605 0.0229688 -0.11253 -0.11253 0.0495134 -0.11253 0.11253 0.0495134 
-0.0522017 0.156605 0.0229688 -0.032565 0.162825 0.0143286 -0.0235247 0.164673 0.0103509 
-0.0183836 0.165452 0.00808877 -0.052648 -0.157944 0.00772171 -0.0655439 -0.152936 0.00961311 
-0.0855062 -0.14251 0.0125409 -0.117222 -0.117222 0.0171926 -0.156605 -0.0522017 0.0229688 
-0.156605 0.0522017 0.0229688 -0.117222 0.117222 0.0171926 -0.0855062 0.14251 0.0125409 
-0.0655439 0.152936 0.00961311 -0.052648 0.157944 0.00772171 -0.0808667 -0.14556 0.00711627 
-0.0967466 -0.135445 0.0085137 -0.117624 -0.117624 0.0103509 -0.14251 -0.0855062 0.0125409 
-0.162825 -0.032565 0.0143286 -0.162825 0.032565 0.0143286 -0.14251 0.0855062 0.0125409 
-0.117624 0.117624 0.0103509 -0.0967466 0.135445 0.0085137 -0.0808667 0.14556 0.00711627 
-0.102247 -0.131461 0.00642698 -0.117735 -0.117735 0.00740048 -0.135445 -0.0967466 0.0085137 
-0.152936 -0.0655439 0.00961311 -0.164673 -0.0235247 0.0103509 -0.164673 0.0235247 0.0103509 
-0.152936 0.0655439 0.00961311 -0.135445 0.0967466 0.0085137 -0.117735 0.117735 0.00740048 
-0.102247 0.131461 0.00642698 -0.117781 -0.117781 0.00575817 -0.131461 -0.102247 0.00642698 
-0.14556 -0.0808667 0.00711627 -0.157944 -0.052648 0.00772171 -0.165452 -0.0183836 0.00808877 
-0.165452 0.0183836 0.00808877 -0.157944 0.052648 0.00772171 -0.14556 0.0808667 0.00711627 
-0.131461 0.102247 0.00642698 -0.117781 0.117781 0.00575817 -0.128931 -0.105489 0.00515724 
-0.14053 -0.0894283 0.00562121 -0.151627 -0.0689215 0.00606509 -0.160674 -0.0438203 0.00642698 
-0.165851 -0.0150773 0.00663403 -0.165851 0.0150773 0.00663403 -0.160674 0.0438203 0.00642698 
-0.151627 0.0689215 0.00606509 -0.14053 0.0894283 0.00562121 -0.128931 0.105489 0.00515724 
0.193281 -0.158139 0.0115969 0.210646 -0.134047 0.0126387 0.227253 -0.103297 0.0136352 
0.240788 -0.0656694 0.0144473 0.24853 -0.0225936 0.0149118 0.24853 0.0225936 0.0149118 
0.240788 0.0656694 0.0144473 0.227253 0.103297 0.0136352 0.210646 0.134047 0.0126387 
0.193281 0.158139 0.0115969 0.17654 -0.17654 0.0129462 0.197008 -0.153229 0.0144473 
0.218092 -0.121162 0.0159934 0.236599 -0.0788663 0.0173506 0.247814 -0.0275348 0.018173 
0.247814 0.0275348 0.018173 0.236599 0.0788663 0.0173506 0.218092 0.121162 0.0159934 
0.197008 0.153229 0.0144473 0.17654 0.17654 0.0129462 0.153229 -0.197008 0.0144473 
0.176385 -0.176385 0.0166306 0.202837 -0.144884 0.0191247 0.228928 -0.0981121 0.0215847 
0.246416 -0.0352023 0.0232335 0.246416 0.0352023 0.0232335 0.228928 0.0981121 0.0215847 
0.202837 0.144884 0.0191247 0.176385 0.176385 0.0166306 0.153229 0.197008 0.0144473 
0.121162 -0.218092 0.0159934 0.144884 -0.202837 0.0191247 0.176012 -0.176012 0.0232335 
0.213013 -0.127808 0.0281177 0.243117 -0.0486234 0.0320914 0.243117 0.0486234 0.0320914 
0.213013 0.127808 0.0281177 0.176012 0.176012 0.0232335 0.144884 0.202837 0.0191247 
0.121162 0.218092 0.0159934 0.0788663 -0.236599 0.0173506 0.0981121 -0.228928 0.0215847 
0.127808 -0.213013 0.0281177 0.174676 -0.174676 0.0384287 0.232168 -0.0773894 0.051077 
0.232168 0.0773894 0.051077 0.174676 0.174676 0.0384287 0.127808 0.213013 0.0281177 
0.0981121 0.228928 0.0215847 0.0788663 0.236599 0.0173506 0.0275348 -0.247814 0.018173 
0.0352023 -0.246416 0.0232335 0.0486234 -0.243117 0.0320914 0.0773894 -0.232168 0.051077 
0.160191 -0.160191 0.105726 0.160191 0.160191 0.105726 0.0773894 0.232168 0.051077 
0.0486234 0.243117 0.0320914 0.0352023 0.246416 0.0232335 0.0275348 0.247814 0.018173 
-0.0275348 -0.247814 0.018173 -0.0352023 -0.246416 0.0232335 -0.0486234 -0.243117 0.0320914 
-0.0773894 -0.232168 0.051077 -0.160191 -0.160191 0.105726 -0.160191 0.160191 0.105726 
-0.0773894 0.232168 0.051077 -0.0486234 0.243117 0.0320914 -0.0352023 0.246416 0.0232335 
-0.0275348 0.247814 0.018173 -0.0788663 -0.236599 0.0173506 -0.0981121 -0.228928 0.0215847 
-0.127808 -0.213013 0.0281177 -0.174676 -0.174676 0.0384287 -0.232168 -0.0773894 0.051077 
-0.232168 0.0773894 0.051077 -0.174676 0.174676 0.0384287 -0.127808 0.213013 0.0281177 
-0.0981121 0.228928 0.0215847 -0.0788663 0.236599 0.0173506 -0.121162 -0.218092 0.0159934 
-0.144884 -0.202837 0.0191247 -0.176012 -0.176012 0.0232335 -0.213013 -0.127808 0.0281177 
-0.243117 -0.0486234 0.0320914 -0.243117 0.0486234 0.0320914 -0.213013 0.127808 0.0281177 
-0.176012 0.176012 0.0232335 -0.144884 0.202837 0.0191247 -0.121162 0.218092 0.0159934 
-0.153229 -0.197008 0.0144473 -0.176385 -0.176385 0.0166306 -0.202837 -0.144884 0.0191247 
-0.228928 -0.0981121 0.0215847 -0.246416 -0.0352023 0.0232335 -0.246416 0.0352023 0.0232335 
-0.228928 0.0981121 0.0215847 -0.202837 0.144884 0.0191247 -0.176385 0.176385 0.0166306 
-0.153229 0.197008 0.0144473 -0.17654 -0.17654 0.0129462 -0.197008 -0.153229 0.0144473 
-0.218092 -0.121162 0.0159934 -0.236599 -0.0788663 0.0173506 -0.247814 -0.0275348 0.018173 
-0.247814 0.0275348 0.018173 -0.236599 0.0788663 0.0173506 -0.218092 0.121162 0.0159934 
-0.197008 0.153229 0.0144473 -0.17654 0.17654 0.0129462 -0.193281 -0.158139 0.0115969 
-0.210646 -0.134047 0.0126387 -0.227253 -0.103297 0.0136352 -0.240788 -0.0656694 0.0144473 
-0.24853 -0.0225936 0.0149118 -0.24853 0.0225936 0.0149118 -0.240788 0.0656694 0.0144473 
-0.227253 0.103297 0.0136352 -0.210646 0.134047 0.0126387 -0.193281 0.158139 0.0115969 
0.257493 -0.210676 0.0205994 0.280582 -0.178552 0.0224466 0.302654 -0.13757 0.0242123 
0.320634 -0.0874457 0.0256507 0.330916 -0.0300833 0.0264733 0.330916 0.0300833 0.0264733 
0.320634 0.0874457 0.0256507 0.302654 0.13757 0.0242123 0.280582 0.178552 0.0224466 
0.257493 0.210676 0.0205994 0.235141 -0.235141 0.0229916 0.262337 -0.20404 0.0256507 
0.290327 -0.161293 0.0283875 0.314876 -0.104959 0.0307879 0.329741 -0.0366379 0.0322414 
0.329741 0.0366379 0.0322414 0.314876 0.104959 0.0307879 0.290327 0.161293 0.0283875 
0.262337 0.20404 0.0256507 0.235141 0.235141 0.0229916 0.20404 -0.262337 0.0256507 
0.234776 -0.234776 0.0295148 0.269836 -0.19274 0.0339223 0.304357 -0.130439 0.038262 
0.327457 -0.0467796 0.041166 0.327457 0.0467796 0.041166 0.304357 0.130439 0.038262 
0.269836 0.19274 0.0339223 0.234776 0.234776 0.0295148 0.20404 0.262337 0.0256507 
0.161293 -0.290327 0.0283875 0.19274 -0.269836 0.0339223 0.233898 -0.233898 0.041166 
0.28263 -0.169578 0.049743 0.322099 -0.0644197 0.0566894 0.322099 0.0644197 0.0566894 
0.28263 0.169578 0.049743 0.233898 0.233898 0.041166 0.19274 0.269836 0.0339223 
0.161293 0.290327 0.0283875 0.104959 -0.314876 0.0307879 0.130439 -0.304357 0.038262 
0.169578 -0.28263 0.049743 0.23079 -0.23079 0.0676984 0.304652 -0.101551 0.0893645 
0.304652 0.101551 0.0893645 0.23079 0.23079 0.0676984 0.169578 0.28263 0.049743 
0.130439 0.304357 0.038262 0.104959 0.314876 0.0307879 0.0366379 -0.329741 0.0322414 
0.0467796 -0.327457 0.041166 0.0644197 -0.322099 0.0566894 0.101551 -0.304652 0.0893645 
0.200122 -0.200122 0.176107 0.200122 0.200122 0.176107 0.101551 0.304652 0.0893645 
0.0644197 0.322099 0.0566894 0.0467796 0.327457 0.041166 0.0366379 0.329741 0.0322414 
-0.0366379 -0.329741 0.0322414 -0.0467796 -0.327457 0.041166 -0.0644197 -0.322099 0.0566894 
-0.101551 -0.304652 0.0893645 -0.200122 -0.200122 0.176107 -0.200122 0.200122 0.176107 
-0.101551 0.304652 0.0893645 -0.0644197 0.322099 0.0566894 -0.0467796 0.327457 0.041166 
-0.0366379 0.329741 0.0322414 -0.104959 -0.314876 0.0307879 -0.130439 -0.304357 0.038262 
-0.169578 -0.28263 0.049743 -0.23079 -0.23079 0.0676984 -0.304652 -0.101551 0.0893645 
-0.304652 0.101551 0.0893645 -0.23079 0.23079 0.0676984 -0.169578 0.28263 0.049743 
-0.130439 0.304357 0.038262 -0.104959 0.314876 0.0307879 -0.161293 -0.290327 0.0283875 
-0.19274 -0.269836 0.0339223 -0.233898 -0.233898 0.041166 -0.28263 -0.169578 0.049743 
-0.322099 -0.0644197 0.0566894 -0.322099 0.0644197 0.0566894 -0.28263 0.169578 0.049743 
-0.233898 0.233898 0.041166 -0.19274 0.269836 0.0339223 -0.161293 0.290327 0.0283875 
-0.20404 -0.262337 0.0256507 -0.234776 -0.234776 0.0295148 -0.269836 -0.19274 0.0339223 
-0.304357 -0.130439 0.038262 -0.327457 -0.0467796 0.041166 -0.327457 0.0467796 0.041166 
-0.304357 0.130439 0.038262 -0.269836 0.19274 0.0339223 -0.234776 0.234776 0.0295148 
-0.20404 0.262337 0.0256507 -0.235141 -0.235141 0.0229916 -0.262337 -0.20404 0.0256507 
-0.290327 -0.161293 0.0283875 -0.314876 -0.104959 0.0307879 -0.329741 -0.0366379 0.0322414 
-0.329741 0.0366379 0.0322414 -0.314876 0.104959 0.0307879 -0.290327 0.161293 0.0283875 
-0.262337 0.20404 0.0256507 -0.235141 0.235141 0.0229916 -0.257493 -0.210676 0.0205994 
-0.280582 -0.178552 0.0224466 -0.302654 -0.13757 0.0242123 -0.320634 -0.0874457 0.0256507 
-0.330916 -0.0300833 0.0264733 -0.330916 0.0300833 0.0264733 -0.320634 0.0874457 0.0256507 
-0.302654 0.13757 0.0242123 -0.280582 0.178552 0.0224466 -0.257493 0.210676 0.0205994 
0.321521 -0.263062 0.0321521 0.350281 -0.222906 0.0350281 0.377757 -0.171708 0.0377757 
0.400127 -0.109126 0.0400127 0.412913 -0.0375375 0.0412913 0.412913 0.0375375 0.0412913 
0.400127 0.109126 0.0400127 0.377757 0.171708 0.0377757 0.350281 0.222906 0.0350281 
0.321521 0.263062 0.0321521 0.293534 -0.293534 0.0358763 0.327377 -0.254626 0.0400127 
0.362171 -0.201206 0.0442653 0.392654 -0.130885 0.047991 0.411096 -0.0456774 0.0502451 
0.411096 0.0456774 0.0502451 0.392654 0.130885 0.047991 0.362171 0.201206 0.0442653 
0.327377 0.254626 0.0400127 0.293534 0.293534 0.0358763 0.254626 -0.327377 0.0400127 
0.292826 -0.292826 0.0460155 0.336317 -0.240227 0.0528498 0.379044 -0.162447 0.059564 
0.407577 -0.0582253 0.0640478 0.407577 0.0582253 0.0640478 0.379044 0.162447 0.059564 
0.336317 0.240227 0.0528498 0.292826 0.292826 0.0460155 0.254626 0.327377 0.0400127 
0.201206 -0.362171 0.0442653 0.240227 -0.336317 0.0528498 0.291126 -0.291126 0.0640478 
0.351096 -0.210658 0.0772411 0.399388 -0.0798775 0.0878653 0.399388 0.0798775 0.0878653 
0.351096 0.210658 0.0772411 0.291126 0.291126 0.0640478 0.240227 0.336317 0.0528498 
0.201206 0.362171 0.0442653 0.130885 -0.392654 0.047991 0.162447 -0.379044 0.059564 
0.210658 -0.351096 0.0772411 0.285198 -0.285198 0.104573 0.373342 -0.124447 0.136892 
0.373342 0.124447 0.136892 0.285198 0.285198 0.104573 0.210658 0.351096 0.0772411 
0.162447 0.379044 0.059564 0.130885 0.392654 0.047991 0.0456774 -0.411096 0.0502451 
0.0582253 -0.407577 0.0640478 0.0798775 -0.399388 0.0878653 0.124447 -0.373342 0.136892 
0.232561 -0.232561 0.255817 0.232561 0.232561 0.255817 0.124447 0.373342 0.136892 
0.0798775 0.399388 0.0878653 0.0582253 0.407577 0.0640478 0.0456774 0.411096 0.0502451 
-0.0456774 -0.411096 0.0502451 -0.0582253 -0.407577 0.0640478 -0.0798775 -0.399388 0.0878653 
-0.124447 -0.373342 0.136892 -0.232561 -0.232561 0.255817 -0.232561 0.232561 0.255817 
-0.124447 0.373342 0.136892 -0.0798775 0.399388 0.0878653 -0.0582253 0.407577 0.0640478 
-0.0456774 0.411096 0.0502451 -0.130885 -0.392654 0.047991 -0.162447 -0.379044 0.059564 
-0.210658 -0.351096 0.0772411 -0.285198 -0.285198 0.104573 -0.373342 -0.124447 0.136892 
-0.373342 0.124447 0.136892 -0.285198 0.285198 0.104573 -0.210658 0.351096 0.0772411 
-0.162447 0.379044 0.059564 -0.130885 0.392654 0.047991 -0.201206 -0.362171 0.0442653 
-0.240227 -0.336317 0.0528498 -0.291126 -0.291126 0.0640478 -0.351096 -0.210658 0.0772411 
-0.399388 -0.0798775 0.0878653 -0.399388 0.0798775 0.0878653 -0.351096 0.210658 0.0772411 
-0.291126 0.291126 0.0640478 -0.240227 0.336317 0.0528498 -0.201206 0.362171 0.0442653 
-0.254626 -0.327377 0.0400127 -0.292826 -0.292826 0.0460155 -0.336317 -0.240227 0.0528498 
-0.379044 -0.162447 0.059564 -0.407577 -0.0582253 0.0640478 -0.407577 0.0582253 0.0640478 
-0.379044 0.162447 0.059564 -0.336317 0.240227 0.0528498 -0.292826 0.292826 0.0460155 
-0.254626 0.327377 0.0400127 -0.293534 -0.293534 0.0358763 -0.327377 -0.254626 0.0400127 
-0.362171 -0.201206 0.0442653 -0.392654 -0.130885 0.047991 -0.411096 -0.0456774 0.0502451 
-0.411096 0.0456774 0.0502451 -0.392654 0.130885 0.047991 -0.362171 0.201206 0.0442653 
-0.327377 0.254626 0.0400127 -0.293534 0.293534 0.0358763 -0.321521 -0.263062 0.0321521 
-0.350281 -0.222906 0.0350281 -0.377757 -0.171708 0.0377757 -0.400127 -0.109126 0.0400127 
-0.412913 -0.0375375 0.0412913 -0.412913 0.0375375 0.0412913 -0.400127 0.109126 0.0400127 
-0.377757 0.171708 0.0377757 -0.350281 0.222906 0.0350281 -0.321521 0.263062 0.0321521 
0.38532 -0.315262 0.0462384 0.419685 -0.267073 0.0503623 0.452491 -0.205678 0.0542989 
0.479181 -0.130686 0.0575018 0.494428 -0.044948 0.0593314 0.494428 0.044948 0.0593314 
0.479181 0.130686 0.0575018 0.452491 0.205678 0.0542989 0.419685 0.267073 0.0503623 
0.38532 0.315262 0.0462384 0.351667 -0.351667 0.0515779 0.392057 -0.304934 0.0575018 
0.43353 -0.24085 0.0635844 0.469816 -0.156605 0.0689063 0.491745 -0.0546383 0.0721226 
0.491745 0.0546383 0.0721226 0.469816 0.156605 0.0689063 0.43353 0.24085 0.0635844 
0.392057 0.304934 0.0575018 0.351667 0.351667 0.0515779 0.304934 -0.392057 0.0575018 
0.350452 -0.350452 0.0660852 0.40216 -0.287257 0.0758358 0.452821 -0.194066 0.0853891 
0.486569 -0.0695099 0.0917531 0.486569 0.0695099 0.0917531 0.452821 0.194066 0.0853891 
0.40216 0.287257 0.0758358 0.350452 0.350452 0.0660852 0.304934 0.392057 0.0575018 
0.24085 -0.43353 0.0635844 0.287257 -0.40216 0.0758358 0.34755 -0.34755 0.0917531 
0.418165 -0.250899 0.110396 0.474644 -0.0949288 0.125306 0.474644 0.0949288 0.125306 
0.418165 0.250899 0.110396 0.34755 0.34755 0.0917531 0.287257 0.40216 0.0758358 
0.24085 0.43353 0.0635844 0.156605 -0.469816 0.0689063 0.194066 -0.452821 0.0853891 
0.250899 -0.418165 0.110396 0.337591 -0.337591 0.14854 0.437737 -0.145912 0.192604 
0.437737 0.145912 0.192604 0.337591 0.337591 0.14854 0.250899 0.418165 0.110396 
0.194066 0.452821 0.0853891 0.156605 0.469816 0.0689063 0.0546383 -0.491745 0.0721226 
0.0695099 -0.486569 0.0917531 0.0949288 -0.474644 0.125306 0.145912 -0.437737 0.192604 
0.258461 -0.258461 0.341168 0.258461 0.258461 0.341168 0.145912 0.437737 0.192604 
0.0949288 0.474644 0.125306 0.0695099 0.486569 0.0917531 0.0546383 0.491745 0.0721226 
-0.0546383 -0.491745 0.0721226 -0.0695099 -0.486569 0.0917531 -0.0949288 -0.474644 0.125306 
-0.145912 -0.437737 0.192604 -0.258461 -0.258461 0.341168 -0.258461 0.258461 0.341168 
-0.145912 0.437737 0.192604 -0.0949288 0.474644 0.125306 -0.0695099 0.486569 0.0917531 
-0.0546383 0.491745 0.0721226 -0.156605 -0.469816 0.0689063 -0.194066 -0.452821 0.0853891 
-0.250899 -0.418165 0.110396 -0.337591 -0.337591 0.14854 -0.437737 -0.145912 0.192604 
-0.437737 0.145912 0.192604 -0.337591 0.337591 0.14854 -0.250899 0.418165 0.110396 
-0.194066 0.452821 0.0853891 -0.156605 0.469816 0.0689063 -0.24085 -0.43353 0.0635844 
-0.287257 -0.40216 0.0758358 -0.34755 -0.34755 0.0917531 -0.418165 -0.250899 0.110396 
-0.474644 -0.0949288 0.125306 -0.474644 0.0949288 0.125306 -0.418165 0.250899 0.110396 
-0.34755 0.34755 0.0917531 -0.287257 0.40216 0.0758358 -0.24085 0.43353 0.0635844 
-0.304934 -0.392057 0.0575018 -0.350452 -0.350452 0.0660852 -0.40216 -0.287257 0.0758358 
-0.452821 -0.194066 0.0853891 -0.486569 -0.0695099 0.0917531 -0.486569 0.0695099 0.0917531 
-0.452821 0.194066 0.0853891 -0.40216 0.287257 0.0758358 -0.350452 0.350452 0.0660852 
-0.304934 0.392057 0.0575018 -0.351667 -0.351667 0.0515779 -0.392057 -0.304934 0.0575018 
-0.43353 -0.24085 0.0635844 -0.469816 -0.156605 0.0689063 -0.491745 -0.0546383 0.0721226 
-0.491745 0.0546383 0.0721226 -0.469816 0.156605 0.0689063 -0.43353 0.24085 0.0635844 
-0.392057 0.304934 0.0575018 -0.351667 0.351667 0.0515779 -0.38532 -0.315262 0.0462384 
-0.419685 -0.267073 0.0503623 -0.452491 -0.205678 0.0542989 -0.479181 -0.130686 0.0575018 
-0.494428 -0.044948 0.0593314 -0.494428 0.044948 0.0593314 -0.479181 0.130686 0.0575018 
-0.452491 0.205678 0.0542989 -0.419685 0.267073 0.0503623 -0.38532 0.315262 0.0462384 
0.448848 -0.367239 0.0628387 0.488739 -0.311015 0.0684234 0.526786 -0.239448 0.07375 
0.557715 -0.152104 0.0780801 0.575372 -0.0523066 0.0805521 0.575372 0.0523066 0.0805521 
0.557715 0.152104 0.0780801 0.526786 0.239448 0.07375 0.488739 0.311015 0.0684234 
0.448848 0.367239 0.0628387 0.409492 -0.409492 0.0700687 0.456312 -0.354909 0.0780801 
0.504315 -0.280175 0.0862938 0.546248 -0.182083 0.0934692 0.571559 -0.0635066 0.0978001 
0.571559 0.0635066 0.0978001 0.546248 0.182083 0.0934692 0.504315 0.280175 0.0862938 
0.456312 0.354909 0.0780801 0.409492 0.409492 0.0700687 0.354909 -0.456312 0.0780801 
0.407577 -0.407577 0.0896669 0.46725 -0.33375 0.102795 0.525531 -0.225228 0.115617 
0.564244 -0.0806063 0.124134 0.564244 0.0806063 0.124134 0.525531 0.225228 0.115617 
0.46725 0.33375 0.102795 0.407577 0.407577 0.0896669 0.354909 0.456312 0.0780801 
0.280175 -0.504315 0.0862938 0.33375 -0.46725 0.102795 0.403031 -0.403031 0.124134 
0.483622 -0.290173 0.148955 0.547577 -0.109515 0.168654 0.547577 0.109515 0.168654 
0.483622 0.290173 0.148955 0.403031 0.403031 0.124134 0.33375 0.46725 0.102795 
0.280175 0.504315 0.0862938 0.182083 -0.546248 0.0934692 0.225228 -0.525531 0.115617 
0.290173 -0.483622 0.148955 0.387726 -0.387726 0.199033 0.497537 -0.165846 0.255402 
0.497537 0.165846 0.255402 0.387726 0.387726 0.199033 0.290173 0.483622 0.148955 
0.225228 0.525531 0.115617 0.182083 0.546248 0.0934692 0.0635066 -0.571559 0.0978001 
0.0806063 -0.564244 0.124134 0.109515 -0.547577 0.168654 0.165846 -0.497537 0.255402 
0.278995 -0.278995 0.429652 0.278995 0.278995 0.429652 0.165846 0.497537 0.255402 
0.109515 0.547577 0.168654 0.0806063 0.564244 0.124134 0.0635066 0.571559 0.0978001 
-0.0635066 -0.571559 0.0978001 -0.0806063 -0.564244 0.124134 -0.109515 -0.547577 0.168654 
-0.165846 -0.497537 0.255402 -0.278995 -0.278995 0.429652 -0.278995 0.278995 0.429652 
-0.165846 0.497537 0.255402 -0.109515 0.547577 0.168654 -0.0806063 0.564244 0.124134 
-0.0635066 0.571559 0.0978001 -0.182083 -0.546248 0.0934692 -0.225228 -0.525531 0.115617 
-0.290173 -0.483622 0.148955 -0.387726 -0.387726 0.199033 -0.497537 -0.165846 0.255402 
-0.497537 0.165846 0.255402 -0.387726 0.387726 0.199033 -0.290173 0.483622 0.148955 
-0.225228 0.525531 0.115617 -0.182083 0.546248 0.0934692 -0.280175 -0.504315 0.0862938 
-0.33375 -0.46725 0.102795 -0.403031 -0.403031 0.124134 -0.483622 -0.290173 0.148955 
-0.547577 -0.109515 0.168654 -0.547577 0.109515 0.168654 -0.483622 0.290173 0.148955 
-0.403031 0.403031 0.124134 -0.33375 0.46725 0.102795 -0.280175 0.504315 0.0862938 
-0.354909 -0.456312 0.0780801 -0.407577 -0.407577 0.0896669 -0.46725 -0.33375 0.102795 
-0.525531 -0.225228 0.115617 -0.564244 -0.0806063 0.124134 -0.564244 0.0806063 0.124134 
-0.525531 0.225228 0.115617 -0.46725 0.33375 0.102795 -0.407577 0.407577 0.0896669 
-0.354909 0.456312 0.0780801 -0.409492 -0.409492 0.0700687 -0.456312 -0.354909 0.0780801 
-0.504315 -0.280175 0.0862938 -0.546248 -0.182083 0.0934692 -0.571559 -0.0635066 0.0978001 
-0.571559 0.0635066 0.0978001 -0.546248 0.182083 0.0934692 -0.504315 0.280175 0.0862938 
-0.456312 0.354909 0.0780801 -0.409492 0.409492 0.0700687 -0.448848 -0.367239 0.0628387 
-0.488739 -0.311015 0.0684234 -0.526786 -0.239448 0.07375 -0.557715 -0.152104 0.0780801 
-0.575372 -0.0523066 0.0805521 -0.575372 0.0523066 0.0805521 -0.557715 0.152104 0.0780801 
-0.526786 0.239448 0.07375 -0.488739 0.311015 0.0684234 -0.448848 0.367239 0.0628387 
0.51206 -0.418958 0.0819297 0.557386 -0.3547 0.0891817 0.600573 -0.272988 0.0960917 
0.635647 -0.173358 0.101704 0.655657 -0.0596052 0.104905 0.655657 0.0596052 0.104905 
0.635647 0.173358 0.101704 0.600573 0.272988 0.0960917 0.557386 0.3547 0.0891817 
0.51206 0.418958 0.0819297 0.466961 -0.466961 0.0913169 0.520075 -0.404503 0.101704 
0.574439 -0.319133 0.112335 0.621845 -0.207282 0.121605 0.650418 -0.0722687 0.127193 
0.650418 0.0722687 0.127193 0.621845 0.207282 0.121605 0.574439 0.319133 0.112335 
0.520075 0.404503 0.101704 0.466961 0.466961 0.0913169 0.404503 -0.520075 0.101704 
0.464126 -0.464126 0.116695 0.531479 -0.379628 0.133629 0.597028 -0.255869 0.15011 
0.640427 -0.0914895 0.161022 0.640427 0.0914895 0.161022 0.597028 0.255869 0.15011 
0.531479 0.379628 0.133629 0.464126 0.464126 0.116695 0.404503 0.520075 0.101704 
0.319133 -0.574439 0.112335 0.379628 -0.531479 0.133629 0.457448 -0.457448 0.161022 
0.547275 -0.328365 0.192641 0.617945 -0.123589 0.217517 0.617945 0.123589 0.217517 
0.547275 0.328365 0.192641 0.457448 0.457448 0.161022 0.379628 0.531479 0.133629 
0.319133 0.574439 0.112335 0.207282 -0.621845 0.121605 0.255869 -0.597028 0.15011 
0.328365 -0.547275 0.192641 0.435425 -0.435425 0.255449 0.55263 -0.18421 0.324209 
0.55263 0.18421 0.324209 0.435425 0.435425 0.255449 0.328365 0.547275 0.192641 
0.255869 0.597028 0.15011 0.207282 0.621845 0.121605 0.0722687 -0.650418 0.127193 
0.0914895 -0.640427 0.161022 0.123589 -0.617945 0.217517 0.18421 -0.55263 0.324209 
0.295274 -0.295274 0.519683 0.295274 0.295274 0.519683 0.18421 0.55263 0.324209 
0.123589 0.617945 0.217517 0.0914895 0.640427 0.161022 0.0722687 0.650418 0.127193 
-0.0722687 -0.650418 0.127193 -0.0914895 -0.640427 0.161022 -0.123589 -0.617945 0.217517 
-0.18421 -0.55263 0.324209 -0.295274 -0.295274 0.519683 -0.295274 0.295274 0.519683 
-0.18421 0.55263 0.324209 -0.123589 0.617945 0.217517 -0.0914895 0.640427 0.161022 
-0.0722687 0.650418 0.127193 -0.207282 -0.621845 0.121605 -0.255869 -0.597028 0.15011 
-0.328365 -0.547275 0.192641 -0.435425 -0.435425 0.255449 -0.55263 -0.18421 0.324209 
-0.55263 0.18421 0.324209 -0.435425 0.435425 0.255449 -0.328365 0.547275 0.192641 
-0.255869 0.597028 0.15011 -0.207282 0.621845 0.121605 -0.319133 -0.574439 0.112335 
-0.379628 -0.531479 0.133629 -0.457448 -0.457448 0.161022 -0.547275 -0.328365 0.192641 
-0.617945 -0.123589 0.217517 -0.617945 0.123589 0.217517 -0.547275 0.328365 0.192641 
-0.457448 0.457448 0.161022 -0.379628 0.531479 0.133629 -0.319133 0.574439 0.112335 
-0.404503 -0.520075 0.101704 -0.464126 -0.464126 0.116695 -0.531479 -0.379628 0.133629 
-0.597028 -0.255869 0.15011 -0.640427 -0.0914895 0.161022 -0.640427 0.0914895 0.161022 
-0.597028 0.255869 0.15011 -0.531479 0.379628 0.133629 -0.464126 0.464126 0.116695 
-0.404503 0.520075 0.101704 -0.466961 -0.466961 0.0913169 -0.520075 -0.404503 0.101704 
-0.574439 -0.319133 0.112335 -0.621845 -0.207282 0.121605 -0.650418 -0.0722687 0.127193 
-0.650418 0.0722687 0.127193 -0.621845 0.207282 0.121605 -0.574439 0.319133 0.112335 
-0.520075 0.404503 0.101704 -0.466961 0.466961 0.0913169 -0.51206 -0.418958 0.0819297 
-0.557386 -0.3547 0.0891817 -0.600573 -0.272988 0.0960917 -0.635647 -0.173358 0.101704 
-0.655657 -0.0596052 0.104905 -0.655657 0.0596052 0.104905 -0.635647 0.173358 0.101704 
-0.600573 0.272988 0.0960917 -0.557386 0.3547 0.0891817 -0.51206 0.418958 0.0819297 
0.574916 -0.470386 0.103485 0.625574 -0.398093 0.112603 0.673788 -0.306267 0.121282 
0.712903 -0.194428 0.128323 0.735201 -0.0668364 0.132336 0.735201 0.0668364 0.132336 
0.712903 0.194428 0.128323 0.673788 0.306267 0.121282 0.625574 0.398093 0.112603 
0.574916 0.470386 0.103485 0.524027 -0.524027 0.115286 0.583284 -0.453666 0.128323 
0.64382 -0.357678 0.14164 0.696504 -0.232168 0.153231 0.728208 -0.080912 0.160206 
0.728208 0.080912 0.160206 0.696504 0.232168 0.153231 0.64382 0.357678 0.14164 
0.583284 0.453666 0.128323 0.524027 0.524027 0.115286 0.453666 -0.583284 0.128323 
0.52003 -0.52003 0.147094 0.594749 -0.424821 0.168229 0.667179 -0.285934 0.188716 
0.714962 -0.102137 0.202232 0.714962 0.102137 0.202232 0.667179 0.285934 0.188716 
0.594749 0.424821 0.168229 0.52003 0.52003 0.147094 0.453666 0.583284 0.128323 
0.357678 -0.64382 0.14164 0.424821 -0.594749 0.168229 0.510687 -0.510687 0.202232 
0.608968 -0.365381 0.241152 0.685563 -0.137113 0.271483 0.685563 0.137113 0.271483 
0.608968 0.365381 0.241152 0.510687 0.510687 0.202232 0.424821 0.594749 0.168229 
0.357678 0.64382 0.14164 0.232168 -0.696504 0.153231 0.285934 -0.667179 0.188716 
0.365381 -0.608968 0.241152 0.480572 -0.480572 0.317177 0.603055 -0.201018 0.398016 
0.603055 0.201018 0.398016 0.480572 0.480572 0.317177 0.365381 0.608968 0.241152 
0.285934 0.667179 0.188716 0.232168 0.696504 0.153231 0.080912 -0.728208 0.160206 